<?xml version="1.0"?> 
<VTKFile type="StructuredGrid" version="0.1"> 
<StructuredGrid WholeExtent="0 20 0 20 0 0"> 
<Piece Extent="0 20 0 20 0 0"> 
<PointData>
<DataArray type="Float32" Name="displacement" format="ascii" NumberOfComponents="3"> 
2.03327e-07 0 0 3.82426e-07 -9.38786e-07 0 6.00047e-07 -1.75729e-06 0 8.21364e-07 -2.32478e-06 0 8.9376e-07 -2.46432e-06 0 8.81572e-07 -2.56158e-06 0 6.77382e-07 -2.24199e-06 0 6.33549e-07 -2.0247e-06 0 4.3358e-07 -1.5449e-06 0 1.10263e-07 -9.72912e-07 0 6.05325e-08 -5.58456e-07 0 -9.65743e-08 1.77275e-07 0 -2.33091e-08 5.92454e-07 0 -1.80305e-07 6.23496e-07 0 -2.05918e-07 5.26215e-07 0 -4.25217e-08 2.57977e-07 0 2.47818e-07 -4.35383e-07 0 3.84663e-07 -8.65246e-07 0 5.18479e-07 -9.9457e-07 0 4.77689e-07 -7.02875e-07 0 0 -1.61766e-07 0 -2.01146e-07 0 0 1.5649e-07 -9.68094e-07 0 5.41577e-07 -1.5443e-06 0 6.25781e-07 -2.07716e-06 0 6.33009e-07 -2.71571e-06 0 7.9595e-07 -3.0526e-06 0 6.46506e-07 -3.15128e-06 0 5.80302e-07 -3.00548e-06 0 3.47456e-07 -2.50876e-06 0 3.91208e-08 -1.8891e-06 0 -1.43666e-07 -1.17055e-06 0 1.22829e-07 -4.31754e-07 0 -1.78721e-07 5.01071e-07 0 -4.60293e-07 1.20255e-06 0 -3.11994e-07 1.26312e-06 0 -6.30703e-08 1.11152e-06 0 3.23482e-07 4.09108e-07 0 5.64178e-07 -2.01232e-07 0 6.43636e-07 -5.21568e-07 0 4.2133e-07 6.64891e-08 0 0 1.34977e-06 0 -8.26675e-07 0 0 -2.08493e-07 -1.23642e-06 0 7.16064e-07 -2.44699e-06 0 7.88371e-07 -3.3682e-06 0 4.84959e-07 -4.20977e-06 0 9.2143e-07 -5.30959e-06 0 8.25775e-07 -6.06055e-06 0 7.30619e-07 -6.8018e-06 0 5.20919e-07 -6.97947e-06 0 5.15335e-07 -6.51085e-06 0 1.63331e-06 -5.53121e-06 0 3.40393e-07 -1.14399e-06 0 -8.1064e-07 1.30888e-06 0 -1.05661e-06 2.05553e-06 0 -8.45854e-07 2.42049e-06 0 -6.04947e-07 2.417e-06 0 -2.3694e-07 1.57292e-06 0 -8.77772e-08 7.70132e-07 0 1.56934e-08 2.55349e-07 0 -1.79637e-08 1.04217e-06 0 0 2.88273e-06 0 -1.22861e-06 0 0 -6.54026e-07 -8.65048e-07 0 4.3158e-07 -2.27549e-06 0 4.27716e-07 -3.26892e-06 0 -9.52541e-08 -4.07174e-06 0 4.60025e-07 -5.53414e-06 0 4.43097e-07 -6.63862e-06 0 5.03901e-07 -7.96955e-06 0 4.83644e-07 -8.87142e-06 0 8.60025e-07 -9.27455e-06 0 3.52557e-06 -9.82709e-06 0 6.79787e-07 -2.67069e-06 0 -1.89537e-06 2.38378e-06 0 -2.42049e-06 3.81452e-06 0 -2.43561e-06 4.47636e-06 0 -2.52742e-06 4.89758e-06 0 -2.26294e-06 3.95974e-06 0 -2.17343e-06 2.93317e-06 0 -1.97208e-06 1.8583e-06 0 -1.40655e-06 1.72273e-06 0 0 2.93109e-06 0 -1.00977e-06 0 0 -9.64957e-07 4.58582e-07 0 -3.25033e-07 -9.10392e-08 0 -5.75821e-07 -4.52417e-07 0 -1.2089e-06 -8.79226e-07 0 -7.29548e-07 -1.92228e-06 0 -7.17712e-07 -2.90582e-06 0 -3.88594e-07 -4.37781e-06 0 -1.86618e-07 -5.9587e-06 0 4.3131e-07 -7.90403e-06 0 4.32248e-06 -1.15473e-05 0 6.28591e-07 -4.27998e-06 0 -3.63532e-06 3.40767e-06 0 -4.721e-06 6.14726e-06 0 -5.10089e-06 7.16679e-06 0 -5.68513e-06 8.34418e-06 0 -5.50746e-06 7.51798e-06 0 -5.33414e-06 6.32546e-06 0 -4.95898e-06 4.382e-06 0 -3.48308e-06 1.94451e-06 0 0 7.75311e-07 0 1.79513e-07 0 0 -7.70599e-07 2.48494e-06 0 -8.97478e-07 3.81123e-06 0 -1.59517e-06 4.8378e-06 0 -2.52481e-06 5.37438e-06 0 -2.15152e-06 5.39519e-06 0 -2.33576e-06 4.84571e-06 0 -1.95456e-06 2.91388e-06 0 -1.86593e-06 2.7658e-07 0 -1.3772e-06 -3.27682e-06 0 3.44173e-06 -9.43005e-06 0 -9.35828e-07 -3.8556e-06 0 -6.45009e-06 4.36415e-06 0 -7.85546e-06 7.79278e-06 0 -8.27346e-06 9.51108e-06 0 -8.95813e-06 1.16435e-05 0 -8.67406e-06 1.12648e-05 0 -8.26944e-06 1.01546e-05 0 -7.63013e-06 7.49964e-06 0 -5.16437e-06 1.87923e-06 0 0 -3.51763e-06 0 2.41351e-06 0 0 1.3856e-07 4.84407e-06 0 -7.63414e-07 8.82798e-06 0 -2.10276e-06 1.20165e-05 0 -3.75494e-06 1.43518e-05 0 -3.41666e-06 1.59812e-05 0 -4.2563e-06 1.60679e-05 0 -4.33811e-06 1.28439e-05 0 -4.86176e-06 8.44785e-06 0 -4.73754e-06 3.5502e-06 0 1.23476e-06 -3.26964e-06 0 -4.07844e-06 -4.02096e-08 0 -1.00778e-05 5.53567e-06 0 -1.13142e-05 8.0755e-06 0 -1.12558e-05 1.08041e-05 0 -1.13826e-05 1.39234e-05 0 -1.07211e-05 1.43522e-05 0 -9.9485e-06 1.36848e-05 0 -8.92488e-06 1.08367e-05 0 -5.57939e-06 1.7969e-06 0 0 -9.29794e-06 0 4.67307e-06 0 0 1.30828e-06 6.77874e-06 0 -2.76571e-08 1.33317e-05 0 -2.06491e-06 1.93984e-05 0 -4.83618e-06 2.45934e-05 0 -4.63048e-06 2.85043e-05 0 -7.04573e-06 2.95601e-05 0 -8.26852e-06 2.47853e-05 0 -9.25191e-06 1.80302e-05 0 -8.17285e-06 1.12571e-05 0 1.57043e-06 3.30482e-06 0 -4.70184e-06 5.49846e-06 0 -1.15734e-05 8.3301e-06 0 -1.302e-05 8.67755e-06 0 -1.28953e-05 1.14743e-05 0 -1.27006e-05 1.53425e-05 0 -1.17199e-05 1.65678e-05 0 -1.0513e-05 1.65109e-05 0 -8.9165e-06 1.3891e-05 0 -4.82748e-06 2.30463e-06 0 0 -1.37214e-05 0 5.6956e-06 0 0 2.16064e-06 7.46943e-06 0 1.10015e-06 1.55699e-05 0 -1.53648e-06 2.51776e-05 0 -5.7641e-06 3.44757e-05 0 -6.07095e-06 4.14639e-05 0 -1.14763e-05 4.39518e-05 0 -1.46083e-05 3.81449e-05 0 -1.50423e-05 2.86651e-05 0 -9.86617e-06 1.85726e-05 0 8.85041e-06 6.18559e-06 0 1.94818e-06 1.05023e-05 0 -7.56082e-06 1.42748e-05 0 -1.06463e-05 1.17206e-05 0 -1.19763e-05 1.22116e-05 0 -1.28027e-05 1.63006e-05 0 -1.19741e-05 1.78642e-05 0 -1.0361e-05 1.83223e-05 0 -7.94679e-06 1.61407e-05 0 -3.251e-06 4.04833e-06 0 0 -1.35314e-05 0 4.90702e-06 0 0 3.01994e-06 6.80619e-06 0 3.53588e-06 1.64278e-05 0 1.82573e-07 3.0541e-05 0 -6.60123e-06 4.44232e-05 0 -9.2498e-06 5.39637e-05 0 -1.92781e-05 5.70861e-05 0 -2.43786e-05 5.04059e-05 0 -2.18988e-05 3.88023e-05 0 -8.5273e-06 2.6102e-05 0 2.23602e-05 9.4769e-06 0 1.48875e-05 1.49762e-05 0 1.89517e-06 2.21436e-05 0 -3.83656e-06 1.71656e-05 0 -7.8632e-06 1.36002e-05 0 -1.09552e-05 1.70489e-05 0 -1.09133e-05 1.83474e-05 0 -9.21631e-06 1.90217e-05 0 -6.11296e-06 1.72468e-05 0 -1.24796e-06 6.69905e-06 0 0 -8.60424e-06 0 2.42174e-06 0 0 5.10641e-06 5.38357e-06 0 9.30572e-06 1.93925e-05 0 4.53258e-06 3.961e-05 0 -7.47539e-06 5.6858e-05 0 -1.68767e-05 6.56937e-05 0 -3.31081e-05 6.60453e-05 0 -3.87542e-05 5.71965e-05 0 -2.91602e-05 4.57445e-05 0 -3.37222e-06 3.62538e-05 0 3.64713e-05 2.51705e-05 0 2.7618e-05 2.10999e-05 0 1.34193e-05 2.80603e-05 0 5.86665e-06 2.28895e-05 0 -4.81668e-07 1.61225e-05 0 -5.8187e-06 1.76946e-05 0 -7.11445e-06 1.82738e-05 0 -6.14101e-06 1.87203e-05 0 -3.27092e-06 1.70507e-05 0 7.28316e-07 8.95985e-06 0 0 -1.94935e-06 0 -1.65897e-06 0 0 9.87875e-06 4.32607e-06 0 2.00063e-05 2.73109e-05 0 1.19661e-05 5.50139e-05 0 -9.51649e-06 7.26768e-05 0 -3.12765e-05 7.54245e-05 0 -5.42749e-05 6.83999e-05 0 -5.71271e-05 5.61987e-05 0 -3.45985e-05 4.90042e-05 0 7.31535e-06 5.19646e-05 0 4.70528e-05 6.24403e-05 0 3.57152e-05 3.18643e-05 0 2.45918e-05 2.9862e-05 0 1.70417e-05 2.7274e-05 0 9.87097e-06 2.00152e-05 0 3.27369e-06 1.83991e-05 0 2.26127e-07 1.79544e-05 0 -6.0492e-07 1.76763e-05 0 5.88497e-07 1.56548e-05 0 2.3373e-06 9.90947e-06 0 0 3.80741e-06 0 -7.40618e-06 0 0 1.9612e-05 6.75998e-06 0 3.53973e-05 4.0143e-05 0 1.89516e-05 7.31394e-05 0 -1.78198e-05 8.65307e-05 0 -5.32272e-05 7.8174e-05 0 -7.88038e-05 6.35614e-05 0 -7.19278e-05 5.31538e-05 0 -2.98107e-05 5.67644e-05 0 2.90754e-05 7.81611e-05 0 5.61903e-05 0.000119111 0 4.3271e-05 5.32838e-05 0 3.70234e-05 3.22484e-05 0 2.89381e-05 3.08688e-05 0 2.15289e-05 2.45981e-05 0 1.43155e-05 1.95716e-05 0 9.39265e-06 1.79076e-05 0 6.23278e-06 1.66991e-05 0 4.90089e-06 1.4164e-05 0 3.69061e-06 1.02714e-05 0 0 8.11894e-06 0 -1.45074e-05 0 0 3.6606e-05 1.61798e-05 0 5.45789e-05 5.7047e-05 0 2.10487e-05 8.89122e-05 0 -3.80972e-05 9.18526e-05 0 -8.29068e-05 6.85892e-05 0 -0.000101463 5.1755e-05 0 -7.42617e-05 5.55644e-05 0 -5.59257e-06 7.87267e-05 0 6.76084e-05 0.00011967 0 6.72287e-05 0.000189789 0 5.60633e-05 9.15183e-05 0 5.31044e-05 4.13451e-05 0 4.10009e-05 3.47651e-05 0 3.25877e-05 2.90187e-05 0 2.47592e-05 2.16574e-05 0 1.81407e-05 1.86765e-05 0 1.28504e-05 1.66945e-05 0 8.98329e-06 1.38786e-05 0 5.00678e-06 1.11434e-05 0 0 1.09783e-05 0 -1.28371e-05 0 0 5.92867e-05 3.3406e-05 0 7.18842e-05 7.51192e-05 0 1.45062e-05 9.79759e-05 0 -6.96152e-05 8.74126e-05 0 -0.00011566 5.18445e-05 0 -0.000115879 4.13558e-05 0 -5.99478e-05 6.92949e-05 0 3.56038e-05 0.000115465 0 0.000114019 0.000170543 0 7.91456e-05 0.000256937 0 7.35749e-05 0.000142416 0 7.16136e-05 6.03e-05 0 5.30955e-05 4.07048e-05 0 4.25708e-05 3.32789e-05 0 3.38051e-05 2.47077e-05 0 2.5666e-05 2.03775e-05 0 1.86305e-05 1.78656e-05 0 1.25818e-05 1.51062e-05 0 6.39137e-06 1.29023e-05 0 0 1.28484e-05 0 1.75432e-05 0 0 8.22326e-05 5.66039e-05 0 7.69433e-05 8.94216e-05 0 -3.75091e-06 9.66783e-05 0 -0.00010535 7.71901e-05 0 -0.000142134 4.33447e-05 0 -0.000114576 4.86301e-05 0 -2.93566e-05 9.86275e-05 0 8.00939e-05 0.000158757 0 0.000145364 0.000214462 0 8.67177e-05 0.000291336 0 8.92295e-05 0.000191901 0 8.78498e-05 8.93922e-05 0 6.54931e-05 5.10585e-05 0 5.23845e-05 3.82077e-05 0 4.23518e-05 2.83908e-05 0 3.25694e-05 2.27111e-05 0 2.38424e-05 1.97268e-05 0 1.5866e-05 1.71746e-05 0 7.83779e-06 1.52092e-05 0 0 1.46619e-05 0 8.87314e-05 0 0 0.000100453 8.18147e-05 0 6.26897e-05 9.52821e-05 0 -3.46766e-05 8.3244e-05 0 -0.00013884 6.5412e-05 0 -0.0001547 5.4505e-05 0 -9.30663e-05 8.41949e-05 0 1.47371e-05 0.000144705 0 0.00011565 0.000200824 0 0.00014545 0.000239148 0 8.62213e-05 0.000275744 0 9.76189e-05 0.000227998 0 9.83976e-05 0.00012709 0 7.84388e-05 6.74436e-05 0 6.28844e-05 4.4514e-05 0 5.1199e-05 3.2455e-05 0 3.93902e-05 2.54391e-05 0 2.8738e-05 2.18775e-05 0 1.89719e-05 1.95067e-05 0 9.31455e-06 1.77615e-05 0 0 1.71445e-05 0 0.000179757 0 0 0.00011125 9.70347e-05 0 3.56953e-05 8.9285e-05 0 -7.10517e-05 6.30711e-05 0 -0.000166539 5.66191e-05 0 -0.000152744 8.02126e-05 0 -5.83311e-05 0.000136183 0 6.08015e-05 0.000196874 0 0.000136548 0.000236425 0 0.000125094 0.0002486 0 8.00986e-05 0.000239587 0 9.83912e-05 0.000247483 0 0.000105109 0.000165224 0 9.20275e-05 8.8583e-05 0 7.45588e-05 5.23535e-05 0 6.0526e-05 3.70089e-05 0 4.62179e-05 2.86201e-05 0 3.33608e-05 2.43497e-05 0 2.18359e-05 2.2051e-05 0 1.07101e-05 2.05196e-05 0 0 2.01108e-05 0 0.00026129 0 0 0.000112646 8.85063e-05 0 5.66953e-06 6.84757e-05 0 -0.000103914 4.30289e-05 0 -0.000185634 5.53663e-05 0 -0.000137474 0.000111847 0 -1.99303e-05 0.00018792 0 9.56962e-05 0.000241963 0 0.000138967 0.000260908 0 0.000100916 0.000250308 0 7.18418e-05 0.000221218 0 9.24568e-05 0.000249594 0 0.000110937 0.000194456 0 0.000106376 0.000112498 0 8.78356e-05 6.1764e-05 0 7.03559e-05 4.22446e-05 0 5.30243e-05 3.23792e-05 0 3.76972e-05 2.72762e-05 0 2.43429e-05 2.48807e-05 0 1.18958e-05 2.35051e-05 0 0 2.316e-05 0 0.000301822 0 0 0.000105887 4.69785e-05 0 -2.17791e-05 3.27706e-05 0 -0.000128565 2.46599e-05 0 -0.000192754 6.61658e-05 0 -0.000112557 0.000150679 0 1.43716e-05 0.000232664 0 0.000112863 0.000269705 0 0.000124147 0.00026657 0 7.85016e-05 0.000243787 0 5.61802e-05 0.000220164 0 8.15356e-05 0.000240007 0 0.000115755 0.000211547 0 0.000122989 0.00013661 0 0.00010399 7.32195e-05 0 8.06579e-05 4.82939e-05 0 5.96281e-05 3.67199e-05 0 4.16148e-05 3.06724e-05 0 2.63234e-05 2.79406e-05 0 1.27936e-05 2.66471e-05 0 0 2.61714e-05 0 0.000267676 0 0 9.54143e-05 -3.23246e-05 0 -4.50893e-05 -1.50804e-05 0 -0.000144491 4.27943e-06 0 -0.000183986 9.34877e-05 0 -8.4045e-05 0.0002076 0 3.85503e-05 0.000273302 0 0.000112107 0.000272649 0 9.82075e-05 0.00024277 0 5.28003e-05 0.000220867 0 1.94008e-05 0.000198553 0 6.81276e-05 0.00023061 0 0.000116466 0.000219151 0 0.000144709 0.000157764 0 0.000125119 8.7617e-05 0 9.13489e-05 5.52304e-05 0 6.56986e-05 4.15265e-05 0 4.48646e-05 3.44382e-05 0 2.75537e-05 3.10493e-05 0 1.33758e-05 2.97833e-05 0 0 2.93039e-05 0 </DataArray> 
<DataArray type="Float32" Name="stress" format="ascii" NumberOfComponents="9"> 
-1.16677 0.232663 0 0.232663 -2.97038 0 0 0 0 -0.353132 -0.0901194 0 -0.0901194 -1.08663 0 0 0 0 -0.131842 -0.31734 0 -0.31734 -1.18027 0 0 0 0 0.58008 -0.457268 0 -0.457268 0.235224 0 0 0 0 0.401335 -0.316701 0 -0.316701 0.174726 0 0 0 0 0.463911 -0.378496 0 -0.378496 0.704863 0 0 0 0 0.492096 -0.277959 0 -0.277959 0.999729 0 0 0 0 0.600916 -0.323626 0 -0.323626 1.0623 0 0 0 0 0.57534 -0.339779 0 -0.339779 1.78501 0 0 0 0 0.625701 -0.354798 0 -0.354798 1.32592 0 0 0 0 0.0805874 -0.589396 0 -0.589396 1.3843 0 0 0 0 0.459682 0.441141 0 0.441141 0.533575 0 0 0 0 -0.284456 0.103927 0 0.103927 -0.257441 0 0 0 0 0.061465 -0.157452 0 -0.157452 0.255001 0 0 0 0 0.258136 -0.104204 0 -0.104204 0.361554 0 0 0 0 0.4761 -0.242513 0 -0.242513 0.328432 0 0 0 0 0.482615 -0.304944 0 -0.304944 0.406203 0 0 0 0 0.283105 -0.0499185 0 -0.0499185 0.539187 0 0 0 0 0.422282 0.0572386 0 0.0572386 0.511917 0 0 0 0 -0.357668 0.294983 0 0.294983 0.301023 0 0 0 0 -0.604271 0.072562 0 0.072562 0.464406 0 0 0 0 -0.0949773 0.0893128 0 0.0893128 -1.22923 0 0 0 0 -0.210178 0.225588 0 0.225588 -1.13583 0 0 0 0 -0.336631 0.250799 0 0.250799 -0.661719 0 0 0 0 -0.591555 0.123418 0 0.123418 -1.11613 0 0 0 0 -0.189896 0.270102 0 0.270102 -0.779822 0 0 0 0 -0.372098 0.375612 0 0.375612 -0.678102 0 0 0 0 -0.511296 0.435032 0 0.435032 -0.673615 0 0 0 0 -0.314291 0.620694 0 0.620694 -0.510538 0 0 0 0 -0.555704 0.610796 0 0.610796 -0.465524 0 0 0 0 -0.45313 0.639648 0 0.639648 -0.595791 0 0 0 0 -0.054679 0.856841 0 0.856841 0.0302391 0 0 0 0 0.161236 0.258904 0 0.258904 0.300581 0 0 0 0 0.0731283 0.117865 0 0.117865 1.03904 0 0 0 0 0.340072 -0.0207457 0 -0.0207457 0.587915 0 0 0 0 0.518818 -0.0422402 0 -0.0422402 0.681469 0 0 0 0 0.60241 -0.17365 0 -0.17365 0.54822 0 0 0 0 0.573901 -0.29236 0 -0.29236 0.398962 0 0 0 0 0.341955 -0.208699 0 -0.208699 0.413432 0 0 0 0 0.186096 -0.07888 0 -0.07888 0.423697 0 0 0 0 -0.251141 0.521311 0 0.521311 0.757831 0 0 0 0 0.42376 0.298199 0 0.298199 1.48487 0 0 0 0 -0.200967 0.126862 0 0.126862 -1.4726 0 0 0 0 -0.165172 0.291495 0 0.291495 -1.31361 0 0 0 0 -0.451863 0.343268 0 0.343268 -1.34586 0 0 0 0 -0.624518 -0.00636331 0 -0.00636331 -1.02566 0 0 0 0 -0.229702 0.174748 0 0.174748 -1.18156 0 0 0 0 -0.369439 0.302506 0 0.302506 -1.20538 0 0 0 0 -0.644711 0.271171 0 0.271171 -1.1868 0 0 0 0 -0.612175 0.45295 0 0.45295 -1.31213 0 0 0 0 -0.598938 0.662533 0 0.662533 -0.743234 0 0 0 0 -0.0770602 0.98023 0 0.98023 -0.508644 0 0 0 0 -0.41575 1.57927 0 1.57927 1.0223 0 0 0 0 -0.343164 0.755163 0 0.755163 2.09352 0 0 0 0 0.212382 -0.0141648 0 -0.0141648 1.38485 0 0 0 0 0.755764 -0.0734038 0 -0.0734038 1.22295 0 0 0 0 0.909756 -0.132812 0 -0.132812 1.39985 0 0 0 0 0.947751 -0.389117 0 -0.389117 1.24965 0 0 0 0 0.810909 -0.583883 0 -0.583883 0.991895 0 0 0 0 0.537766 -0.531961 0 -0.531961 0.989268 0 0 0 0 0.574892 -0.370914 0 -0.370914 0.969935 0 0 0 0 0.123445 0.496985 0 0.496985 0.925369 0 0 0 0 1.18843 0.323776 0 0.323776 1.2641 0 0 0 0 -0.153745 0.0731197 0 0.0731197 -0.616033 0 0 0 0 -0.0640356 0.0312551 0 0.0312551 -1.09675 0 0 0 0 0.0875789 -0.119826 0 -0.119826 -1.20996 0 0 0 0 0.139018 -0.653842 0 -0.653842 -0.389822 0 0 0 0 0.320463 -0.478411 0 -0.478411 -0.814501 0 0 0 0 0.402758 -0.479157 0 -0.479157 -0.727309 0 0 0 0 0.147154 -0.57755 0 -0.57755 -0.596097 0 0 0 0 0.0456509 -0.490054 0 -0.490054 -0.799612 0 0 0 0 -0.0171511 -0.257674 0 -0.257674 -0.205327 0 0 0 0 0.637964 0.265468 0 0.265468 -0.212357 0 0 0 0 0.324838 1.37739 0 1.37739 1.64151 0 0 0 0 -1.26376 1.15508 0 1.15508 3.3866 0 0 0 0 0.224838 0.0962617 0 0.0962617 2.13335 0 0 0 0 1.08416 -0.271683 0 -0.271683 2.07397 0 0 0 0 1.12944 -0.363862 0 -0.363862 2.3162 0 0 0 0 1.3211 -0.737512 0 -0.737512 2.39052 0 0 0 0 1.30388 -1.02265 0 -1.02265 2.16587 0 0 0 0 1.00896 -0.968844 0 -0.968844 2.154 0 0 0 0 1.11816 -0.952016 0 -0.952016 1.76741 0 0 0 0 0.906413 -0.118461 0 -0.118461 0.800675 0 0 0 0 2.34901 0.160639 0 0.160639 0.234944 0 0 0 0 0.0913763 -0.0933438 0 -0.0933438 1.3177 0 0 0 0 -0.0347662 -0.335686 0 -0.335686 -0.36543 0 0 0 0 0.526282 -0.654386 0 -0.654386 -0.275044 0 0 0 0 0.611496 -1.26418 0 -1.26418 0.16386 0 0 0 0 0.865794 -1.17223 0 -1.17223 -0.0692671 0 0 0 0 1.03565 -1.3073 0 -1.3073 0.0568406 0 0 0 0 0.918463 -1.44041 0 -1.44041 0.117194 0 0 0 0 0.868755 -1.33709 0 -1.33709 -0.152135 0 0 0 0 0.529673 -1.22676 0 -1.22676 -0.146696 0 0 0 0 1.17458 -0.748217 0 -0.748217 -0.695353 0 0 0 0 1.63478 0.579711 0 0.579711 1.2115 0 0 0 0 -1.85933 0.913086 0 0.913086 4.49928 0 0 0 0 0.21667 0.232451 0 0.232451 3.18899 0 0 0 0 0.992303 -0.427037 0 -0.427037 2.21766 0 0 0 0 0.950995 -0.46578 0 -0.46578 2.65434 0 0 0 0 1.29575 -0.807737 0 -0.807737 2.91033 0 0 0 0 1.56074 -1.15016 0 -1.15016 2.79974 0 0 0 0 1.34343 -1.12284 0 -1.12284 2.86148 0 0 0 0 1.51494 -1.38338 0 -1.38338 2.26809 0 0 0 0 2.03363 -0.986952 0 -0.986952 0.739233 0 0 0 0 3.51172 -0.180647 0 -0.180647 -0.869495 0 0 0 0 -0.0965395 -0.280262 0 -0.280262 2.83523 0 0 0 0 -0.0901042 -0.719689 0 -0.719689 0.882875 0 0 0 0 0.598338 -1.09069 0 -1.09069 0.958064 0 0 0 0 0.59926 -1.83767 0 -1.83767 0.773332 0 0 0 0 1.2603 -1.82943 0 -1.82943 0.86904 0 0 0 0 1.3175 -2.08542 0 -2.08542 0.850908 0 0 0 0 1.22584 -2.32804 0 -2.32804 0.457702 0 0 0 0 1.29443 -2.13017 0 -2.13017 -0.215391 0 0 0 0 0.93825 -2.05056 0 -2.05056 -0.464796 0 0 0 0 1.95356 -1.65132 0 -1.65132 -1.11442 0 0 0 0 2.72107 -0.518481 0 -0.518481 1.55006 0 0 0 0 -1.81712 -0.0078332 0 -0.0078332 5.63161 0 0 0 0 0.060432 -0.0391927 0 -0.0391927 3.27758 0 0 0 0 0.708473 -0.46752 0 -0.46752 1.55586 0 0 0 0 0.78798 -0.330665 0 -0.330665 2.42434 0 0 0 0 1.12174 -0.529205 0 -0.529205 2.67418 0 0 0 0 1.57725 -0.867664 0 -0.867664 2.74576 0 0 0 0 1.514 -0.886421 0 -0.886421 2.98471 0 0 0 0 1.84407 -1.41123 0 -1.41123 2.54302 0 0 0 0 3.03965 -1.86066 0 -1.86066 0.67017 0 0 0 0 3.2193 -0.725813 0 -0.725813 -2.52345 0 0 0 0 -0.277984 -0.388773 0 -0.388773 3.56025 0 0 0 0 0.139291 -0.987544 0 -0.987544 2.62357 0 0 0 0 0.636697 -1.17496 0 -1.17496 2.37928 0 0 0 0 0.423502 -2.2098 0 -2.2098 1.72199 0 0 0 0 1.61791 -2.24906 0 -2.24906 1.99992 0 0 0 0 1.47478 -2.68023 0 -2.68023 1.64815 0 0 0 0 1.30359 -3.21339 0 -3.21339 0.421752 0 0 0 0 1.49252 -3.01868 0 -3.01868 -1.06584 0 0 0 0 1.23738 -2.78952 0 -2.78952 -0.950885 0 0 0 0 2.61064 -2.15113 0 -2.15113 -1.29666 0 0 0 0 2.35211 -1.1042 0 -1.1042 1.87218 0 0 0 0 -2.04064 -0.802579 0 -0.802579 5.57203 0 0 0 0 -0.314869 -0.507234 0 -0.507234 2.38157 0 0 0 0 0.683413 -0.2327 0 -0.2327 1.21167 0 0 0 0 0.982404 0.0871921 0 0.0871921 2.22302 0 0 0 0 1.16517 -0.0529003 0 -0.0529003 2.27207 0 0 0 0 1.55053 -0.38176 0 -0.38176 2.38731 0 0 0 0 1.61761 -0.456951 0 -0.456951 2.74328 0 0 0 0 2.11173 -1.14916 0 -1.14916 2.58167 0 0 0 0 3.71087 -2.69825 0 -2.69825 0.759763 0 0 0 0 1.51762 -1.38008 0 -1.38008 -3.5015 0 0 0 0 0.532119 -0.292941 0 -0.292941 4.38947 0 0 0 0 0.706798 -0.972963 0 -0.972963 4.04966 0 0 0 0 0.964524 -0.695171 0 -0.695171 3.91737 0 0 0 0 0.473825 -2.12139 0 -2.12139 3.22178 0 0 0 0 2.11083 -2.21649 0 -2.21649 3.4812 0 0 0 0 1.71242 -2.98375 0 -2.98375 2.5753 0 0 0 0 1.59884 -3.98027 0 -3.98027 0.437226 0 0 0 0 2.21533 -3.89596 0 -3.89596 -1.88191 0 0 0 0 1.85672 -3.40238 0 -3.40238 -1.56347 0 0 0 0 2.98536 -2.02507 0 -2.02507 -1.89521 0 0 0 0 0.986176 -0.284471 0 -0.284471 -0.0303969 0 0 0 0 -3.33285 -0.271497 0 -0.271497 4.53554 0 0 0 0 -0.80213 -0.415113 0 -0.415113 2.2079 0 0 0 0 0.670575 0.197267 0 0.197267 1.76722 0 0 0 0 0.97634 0.614138 0 0.614138 2.14646 0 0 0 0 1.1946 0.380177 0 0.380177 2.05201 0 0 0 0 1.49237 0.0045985 0 0.0045985 1.93859 0 0 0 0 1.67723 -0.0891774 0 -0.0891774 2.28006 0 0 0 0 2.30071 -0.836549 0 -0.836549 2.28501 0 0 0 0 4.17207 -3.18541 0 -3.18541 1.40264 0 0 0 0 0.0935945 -1.81765 0 -1.81765 -1.87497 0 0 0 0 2.41319 0.0722315 0 0.0722315 5.81521 0 0 0 0 1.07636 -0.653185 0 -0.653185 4.2365 0 0 0 0 1.23528 0.17176 0 0.17176 5.24619 0 0 0 0 0.619643 -1.7203 0 -1.7203 5.19996 0 0 0 0 2.762 -1.86582 0 -1.86582 5.38458 0 0 0 0 2.22144 -3.08105 0 -3.08105 3.75577 0 0 0 0 2.38741 -4.5535 0 -4.5535 0.846346 0 0 0 0 3.91119 -4.46151 0 -4.46151 -2.03665 0 0 0 0 3.20857 -3.66541 0 -3.66541 -2.3186 0 0 0 0 3.72557 -1.27449 0 -1.27449 -3.10611 0 0 0 0 0.805504 1.81991 0 1.81991 -3.20705 0 0 0 0 -5.15236 1.71244 0 1.71244 4.55455 0 0 0 0 -1.42737 0.450831 0 0.450831 3.4627 0 0 0 0 -0.0737243 0.48926 0 0.48926 2.26335 0 0 0 0 0.0418883 1.0137 0 1.0137 1.70927 0 0 0 0 0.71971 0.71318 0 0.71318 1.73863 0 0 0 0 1.25661 0.257305 0 0.257305 1.27165 0 0 0 0 1.65331 0.22057 0 0.22057 1.58239 0 0 0 0 2.45421 -0.496113 0 -0.496113 1.67766 0 0 0 0 4.43036 -2.93762 0 -2.93762 2.53963 0 0 0 0 -0.328033 -1.82665 0 -1.82665 2.06801 0 0 0 0 3.957 0.51623 0 0.51623 6.3937 0 0 0 0 0.395456 -0.102983 0 -0.102983 3.45557 0 0 0 0 -0.0129852 0.341869 0 0.341869 6.02832 0 0 0 0 -0.413415 -2.2617 0 -2.2617 6.77496 0 0 0 0 2.99926 -2.3039 0 -2.3039 6.85418 0 0 0 0 4.10049 -3.4437 0 -3.4437 5.01138 0 0 0 0 4.95245 -4.62362 0 -4.62362 1.73353 0 0 0 0 7.22765 -3.82446 0 -3.82446 -1.2724 0 0 0 0 5.73843 -2.74368 0 -2.74368 -2.3119 0 0 0 0 5.7299 -0.240161 0 -0.240161 -3.05683 0 0 0 0 3.87983 2.30431 0 2.30431 -0.806266 0 0 0 0 -5.77097 2.73329 0 2.73329 6.55477 0 0 0 0 -2.6837 1.18475 0 1.18475 3.35954 0 0 0 0 -1.86571 0.352692 0 0.352692 0.96322 0 0 0 0 -1.48705 1.18302 0 1.18302 1.04089 0 0 0 0 -0.281174 1.1698 0 1.1698 1.1215 0 0 0 0 0.82157 0.708621 0 0.708621 0.556146 0 0 0 0 1.47247 0.675659 0 0.675659 0.811425 0 0 0 0 2.417 -0.0905176 0 -0.0905176 0.865896 0 0 0 0 3.88994 -2.15755 0 -2.15755 2.75108 0 0 0 0 -0.929199 -1.50527 0 -1.50527 4.22835 0 0 0 0 4.11792 0.724351 0 0.724351 3.99222 0 0 0 0 -0.602386 0.971669 0 0.971669 3.61868 0 0 0 0 -2.67313 -0.378339 0 -0.378339 7.14198 0 0 0 0 -3.1289 -4.09081 0 -4.09081 7.33102 0 0 0 0 1.73831 -4.1929 0 -4.1929 6.38383 0 0 0 0 6.75122 -4.48542 0 -4.48542 4.95711 0 0 0 0 9.5293 -4.12033 0 -4.12033 2.33205 0 0 0 0 12.7437 -1.64785 0 -1.64785 0.54927 0 0 0 0 10.5747 0.0267977 0 0.0267977 0.454255 0 0 0 0 9.14846 1.36602 0 1.36602 0.82823 0 0 0 0 5.67329 -0.93567 0 -0.93567 5.40386 0 0 0 0 -5.38078 1.29136 0 1.29136 6.67472 0 0 0 0 -4.06061 1.56046 0 1.56046 0.965125 0 0 0 0 -3.43299 0.386182 0 0.386182 -0.867449 0 0 0 0 -2.54577 1.38802 0 1.38802 0.819456 0 0 0 0 -1.38088 1.82814 0 1.82814 0.301985 0 0 0 0 0.117065 1.4642 0 1.4642 -0.133077 0 0 0 0 0.828298 1.24091 0 1.24091 -0.173675 0 0 0 0 1.73059 0.318041 0 0.318041 -0.344915 0 0 0 0 2.3789 -1.35304 0 -1.35304 1.6186 0 0 0 0 -1.5379 -0.962507 0 -0.962507 4.081 0 0 0 0 2.90742 0.863772 0 0.863772 -1.58345 0 0 0 0 -2.05001 2.26455 0 2.26455 5.4444 0 0 0 0 -5.47616 -1.51514 0 -1.51514 9.35446 0 0 0 0 -5.17181 -6.195 0 -6.195 7.57044 0 0 0 0 1.14114 -6.56603 0 -6.56603 4.27819 0 0 0 0 9.07912 -5.50338 0 -5.50338 2.66955 0 0 0 0 13.2434 -3.10705 0 -3.10705 1.41538 0 0 0 0 16.7998 0.967566 0 0.967566 2.40153 0 0 0 0 14.5011 3.45795 0 3.45795 5.68847 0 0 0 0 11.0469 3.1943 0 3.1943 8.43986 0 0 0 0 1.02854 -7.27178 0 -7.27178 8.61721 0 0 0 0 -3.89507 -1.89923 0 -1.89923 4.20636 0 0 0 0 -3.97235 1.96123 0 1.96123 -0.373407 0 0 0 0 -3.58129 0.998534 0 0.998534 -1.14214 0 0 0 0 -2.75934 1.56621 0 1.56621 0.899854 0 0 0 0 -2.2073 2.23277 0 2.23277 -0.41544 0 0 0 0 -0.816918 2.07725 0 2.07725 -0.614409 0 0 0 0 -0.275787 1.57019 0 1.57019 -1.0731 0 0 0 0 0.459225 0.584036 0 0.584036 -1.38732 0 0 0 0 0.439187 -0.745242 0 -0.745242 0.178094 0 0 0 0 -1.46694 -0.28352 0 -0.28352 3.06267 0 0 0 0 2.50867 2.56513 0 2.56513 -5.46012 0 0 0 0 -5.16123 2.81358 0 2.81358 7.56484 0 0 0 0 -8.34888 -2.924 0 -2.924 10.8843 0 0 0 0 -4.76016 -7.92142 0 -7.92142 7.49973 0 0 0 0 4.55878 -7.79346 0 -7.79346 1.95825 0 0 0 0 12.1853 -4.76031 0 -4.76031 -0.1153 0 0 0 0 15.0276 -0.848937 0 -0.848937 1.01172 0 0 0 0 16.4873 3.2966 0 3.2966 5.11917 0 0 0 0 12.3786 5.50815 0 5.50815 10.5522 0 0 0 0 5.92131 3.53339 0 3.53339 14.9217 0 0 0 0 -6.7025 -12.6545 0 -12.6545 10.3012 0 0 0 0 -0.61963 -4.86788 0 -4.86788 3.07746 0 0 0 0 -2.94678 2.13221 0 2.13221 1.36983 0 0 0 0 -3.09858 1.62613 0 1.62613 -0.109711 0 0 0 0 -2.75938 1.44145 0 1.44145 0.635261 0 0 0 0 -2.6538 1.99001 0 1.99001 -0.647715 0 0 0 0 -1.66707 2.08151 0 2.08151 -0.649586 0 0 0 0 -1.28843 1.46568 0 1.46568 -1.251 0 0 0 0 -0.685195 0.629743 0 0.629743 -1.39423 0 0 0 0 -1.03595 -0.284675 0 -0.284675 -0.299157 0 0 0 0 -1.06725 0.257521 0 0.257521 2.16517 0 0 0 0 2.69223 7.22433 0 7.22433 -3.79728 0 0 0 0 -9.71479 2.21332 0 2.21332 9.16992 0 0 0 0 -11.3277 -4.85182 0 -4.85182 9.83272 0 0 0 0 -2.89877 -9.81509 0 -9.81509 5.91293 0 0 0 0 11.2503 -7.75811 0 -7.75811 -0.775 0 0 0 0 17.0357 -1.94566 0 -1.94566 -1.59713 0 0 0 0 16.758 3.07405 0 3.07405 4.34033 0 0 0 0 13.9753 5.97487 0 5.97487 11.3353 0 0 0 0 5.03306 6.011 0 6.011 14.1955 0 0 0 0 -6.32684 1.55852 0 1.55852 17.2641 0 0 0 0 -11.6351 -14.2687 0 -14.2687 15.8949 0 0 0 0 3.99991 -7.18217 0 -7.18217 4.01778 0 0 0 0 -3.28873 1.05487 0 1.05487 3.72245 0 0 0 0 -3.3613 1.57979 0 1.57979 0.67096 0 0 0 0 -2.97245 1.04343 0 1.04343 0.0698861 0 0 0 0 -2.78011 1.31518 0 1.31518 -0.2992 0 0 0 0 -2.19284 1.58189 0 1.58189 -0.238171 0 0 0 0 -1.82667 1.11238 0 1.11238 -0.588411 0 0 0 0 -1.32569 0.510941 0 0.510941 -0.389656 0 0 0 0 -1.74671 0.0163395 0 0.0163395 0.174679 0 0 0 0 -1.23402 0.384715 0 0.384715 1.09463 0 0 0 0 -9.29067 12.1944 0 12.1944 -0.086622 0 0 0 0 -11.1516 0.636126 0 0.636126 11.0966 0 0 0 0 -7.81002 -6.39138 0 -6.39138 8.42979 0 0 0 0 0.529205 -11.4323 0 -11.4323 3.33603 0 0 0 0 14.0123 -7.77425 0 -7.77425 -4.8314 0 0 0 0 17.9983 -0.789537 0 -0.789537 -2.38078 0 0 0 0 15.9513 5.05549 0 5.05549 9.98459 0 0 0 0 12.4477 8.24219 0 8.24219 20.1096 0 0 0 0 3.89629 6.67695 0 6.67695 19.1229 0 0 0 0 -8.63804 0.0863996 0 0.0863996 19.7261 0 0 0 0 -16.1792 -12.0488 0 -12.0488 12.2547 0 0 0 0 5.54777 -9.57364 0 -9.57364 -1.15876 0 0 0 0 -5.20227 -2.11835 0 -2.11835 4.19982 0 0 0 0 -4.0681 0.819471 0 0.819471 1.65311 0 0 0 0 -3.18153 0.796465 0 0.796465 0.0844993 0 0 0 0 -2.88857 0.896631 0 0.896631 0.0714629 0 0 0 0 -2.58992 1.15568 0 1.15568 0.0511797 0 0 0 0 -2.18106 0.877894 0 0.877894 -0.0160085 0 0 0 0 -1.85988 0.402793 0 0.402793 0.31248 0 0 0 0 -2.10742 0.145028 0 0.145028 0.60637 0 0 0 0 -1.81536 0.181106 0 0.181106 0.454922 0 0 0 0 -35.467 12.276 0 12.276 5.3181 0 0 0 0 -9.83628 -3.03096 0 -3.03096 11.631 0 0 0 0 3.65671 -7.15553 0 -7.15553 7.47868 0 0 0 0 7.80138 -11.1961 0 -11.1961 2.19026 0 0 0 0 14.2212 -7.01969 0 -7.01969 -5.72488 0 0 0 0 14.6355 -1.82485 0 -1.82485 -0.423603 0 0 0 0 9.40843 3.26024 0 3.26024 14.0168 0 0 0 0 6.82354 7.51398 0 7.51398 23.9819 0 0 0 0 6.18537 5.88501 0 5.88501 21.395 0 0 0 0 1.85408 -0.701877 0 -0.701877 21.3266 0 0 0 0 -19.8519 -6.23375 0 -6.23375 -5.35771 0 0 0 0 4.29359 -10.5969 0 -10.5969 -8.22052 0 0 0 0 -5.18771 -6.16016 0 -6.16016 5.73835 0 0 0 0 -4.22061 -0.429019 0 -0.429019 3.43918 0 0 0 0 -3.39654 0.61283 0 0.61283 0.482052 0 0 0 0 -3.14049 0.770309 0 0.770309 0.208171 0 0 0 0 -3.06486 0.899536 0 0.899536 0.0732573 0 0 0 0 -2.58753 0.751101 0 0.751101 0.173588 0 0 0 0 -2.42632 0.345775 0 0.345775 0.469116 0 0 0 0 -2.41336 0.181062 0 0.181062 0.760503 0 0 0 0 -2.29398 -0.0255328 0 -0.0255328 0.557549 0 0 0 0 -54.6755 5.0956 0 5.0956 19.3983 0 0 0 0 -7.8088 -7.71458 0 -7.71458 9.29316 0 0 0 0 14.311 -7.12669 0 -7.12669 4.11193 0 0 0 0 14.7766 -9.57178 0 -9.57178 1.89542 0 0 0 0 15.356 -4.94707 0 -4.94707 0.0794952 0 0 0 0 11.6278 -1.91948 0 -1.91948 7.09754 0 0 0 0 2.65399 1.06325 0 1.06325 16.8416 0 0 0 0 -0.603712 4.43997 0 4.43997 20.6767 0 0 0 0 5.36922 2.23238 0 2.23238 16.946 0 0 0 0 9.27859 -3.23129 0 -3.23129 15.1355 0 0 0 0 -12.2898 2.47236 0 2.47236 -12.3265 0 0 0 0 3.17674 -8.56691 0 -8.56691 -8.87635 0 0 0 0 -2.77576 -8.94325 0 -8.94325 6.48246 0 0 0 0 -3.92779 -1.95309 0 -1.95309 4.59856 0 0 0 0 -3.82026 0.314133 0 0.314133 0.64872 0 0 0 0 -3.54106 0.753047 0 0.753047 0.230094 0 0 0 0 -3.65137 0.726199 0 0.726199 -0.000194314 0 0 0 0 -3.05289 0.642201 0 0.642201 0.183293 0 0 0 0 -2.92278 0.311125 0 0.311125 0.424334 0 0 0 0 -2.744 0.175901 0 0.175901 0.770819 0 0 0 0 -2.58509 -0.0411698 0 -0.0411698 0.93843 0 0 0 0 -50.468 -5.33219 0 -5.33219 38.1374 0 0 0 0 -5.17571 -10.0141 0 -10.0141 5.49099 0 0 0 0 17.0324 -5.72482 0 -5.72482 -1.09693 0 0 0 0 15.6779 -8.47325 0 -8.47325 1.29646 0 0 0 0 17.1693 -2.51565 0 -2.51565 9.54255 0 0 0 0 10.6975 0.901663 0 0.901663 17.3432 0 0 0 0 1.60655 2.01218 0 2.01218 20.2399 0 0 0 0 -1.85498 2.16131 0 2.16131 15.7157 0 0 0 0 3.31473 -2.33983 0 -2.33983 9.15731 0 0 0 0 4.55296 -6.94214 0 -6.94214 2.34015 0 0 0 0 3.80795 8.22781 0 8.22781 4.12338 0 0 0 0 3.80818 -4.61502 0 -4.61502 -5.34904 0 0 0 0 -0.49645 -9.05472 0 -9.05472 3.08798 0 0 0 0 -3.66619 -3.36214 0 -3.36214 4.19076 0 0 0 0 -4.54085 -0.103891 0 -0.103891 0.349871 0 0 0 0 -4.09631 0.693611 0 0.693611 0.31811 0 0 0 0 -4.25162 0.547312 0 0.547312 0.0398739 0 0 0 0 -3.49418 0.504399 0 0.504399 0.291139 0 0 0 0 -3.26121 0.249409 0 0.249409 0.505905 0 0 0 0 -3.0219 0.131132 0 0.131132 0.821668 0 0 0 0 -2.87408 0.0297175 0 0.0297175 1.01772 0 0 0 0 -28.4118 -14.5421 0 -14.5421 47.5761 0 0 0 0 -1.11179 -8.20438 0 -8.20438 2.17756 0 0 0 0 15.051 -2.28219 0 -2.28219 -3.23922 0 0 0 0 11.2877 -8.1449 0 -8.1449 2.00139 0 0 0 0 16.9117 -0.77918 0 -0.77918 18.1129 0 0 0 0 9.16612 4.56594 0 4.56594 25.1911 0 0 0 0 4.17202 4.66394 0 4.66394 22.8347 0 0 0 0 4.23334 1.68742 0 1.68742 12.4482 0 0 0 0 5.64498 -4.91097 0 -4.91097 3.37809 0 0 0 0 -1.33439 -7.82502 0 -7.82502 -7.21608 0 0 0 0 9.88291 4.23556 0 4.23556 19.1474 0 0 0 0 5.86138 -1.0008 0 -1.0008 -4.85001 0 0 0 0 1.27287 -6.54813 0 -6.54813 -2.28788 0 0 0 0 -3.23922 -4.15864 0 -4.15864 3.05954 0 0 0 0 -5.44164 -0.490006 0 -0.490006 -0.109846 0 0 0 0 -4.91868 0.564883 0 0.564883 0.402074 0 0 0 0 -4.83877 0.352148 0 0.352148 0.175563 0 0 0 0 -3.94376 0.330298 0 0.330298 0.463566 0 0 0 0 -3.50953 0.141383 0 0.141383 0.652173 0 0 0 0 -3.22261 0.0533116 0 0.0533116 0.906233 0 0 0 0 -3.11991 0.0525751 0 0.0525751 0.866475 0 0 0 0 6.55688 -17.4086 0 -17.4086 30.3798 0 0 0 0 2.82532 -2.56824 0 -2.56824 3.52839 0 0 0 0 13.7594 1.72 0 1.72 -0.453611 0 0 0 0 8.23162 -6.19043 0 -6.19043 7.64617 0 0 0 0 12.828 -0.329634 0 -0.329634 25.1657 0 0 0 0 8.8183 3.96102 0 3.96102 29.7111 0 0 0 0 7.19698 4.54928 0 4.54928 21.4617 0 0 0 0 9.90519 2.58074 0 2.58074 7.75759 0 0 0 0 8.25885 -2.77992 0 -2.77992 -0.771401 0 0 0 0 5.79734 -2.72043 0 -2.72043 