<?xml version="1.0"?> 
<VTKFile type="StructuredGrid" version="0.1"> 
<StructuredGrid WholeExtent="0 20 0 20 0 0"> 
<Piece Extent="0 20 0 20 0 0"> 
<PointData>
<DataArray type="Float32" Name="displacement" format="ascii" NumberOfComponents="3"> 
-5.50078e-09 0 0 -5.48771e-09 -5.50717e-11 0 -5.44471e-09 -1.14702e-10 0 -5.36993e-09 -1.7878e-10 0 -5.25801e-09 -2.50698e-10 0 -5.10523e-09 -3.26212e-10 0 -4.91288e-09 -4.09823e-10 0 -4.666e-09 -4.92409e-10 0 -4.38173e-09 -5.79623e-10 0 -4.04221e-09 -6.59657e-10 0 -3.65822e-09 -7.27648e-10 0 -3.24726e-09 -7.89106e-10 0 -2.82357e-09 -8.40027e-10 0 -2.40934e-09 -8.82664e-10 0 -1.99972e-09 -9.11314e-10 0 -1.61116e-09 -9.34025e-10 0 -1.246e-09 -9.48304e-10 0 -8.95907e-10 -9.58696e-10 0 -5.80889e-10 -9.62795e-10 0 -2.80395e-10 -9.65537e-10 0 0 -9.66802e-10 0 -5.50333e-09 0 0 -5.48472e-09 -9.92213e-12 0 -5.42558e-09 -1.95746e-11 0 -5.32255e-09 -2.9711e-11 0 -5.17165e-09 -4.30457e-11 0 -4.97095e-09 -6.09242e-11 0 -4.72636e-09 -8.51731e-11 0 -4.42773e-09 -1.18809e-10 0 -4.1038e-09 -1.61428e-10 0 -3.73698e-09 -2.15001e-10 0 -3.34532e-09 -2.78714e-10 0 -2.95406e-09 -3.85318e-10 0 -2.57018e-09 -4.93779e-10 0 -2.2068e-09 -5.97025e-10 0 -1.84316e-09 -6.89762e-10 0 -1.49931e-09 -7.66889e-10 0 -1.16941e-09 -8.26223e-10 0 -8.48749e-10 -8.7061e-10 0 -5.5434e-10 -8.97819e-10 0 -2.67698e-10 -9.13363e-10 0 0 -9.20161e-10 0 -5.51889e-09 0 0 -5.49776e-09 2.05427e-11 0 -5.42965e-09 4.18906e-11 0 -5.31244e-09 6.05885e-11 0 -5.14581e-09 7.41547e-11 0 -4.93138e-09 7.80467e-11 0 -4.68151e-09 7.16506e-11 0 -4.38828e-09 4.98374e-11 0 -4.08654e-09 1.85665e-11 0 -3.75702e-09 -2.72812e-11 0 -3.41822e-09 -8.23682e-11 0 -3.03009e-09 -1.81991e-10 0 -2.64205e-09 -2.89329e-10 0 -2.27137e-09 -3.97391e-10 0 -1.89635e-09 -5.05836e-10 0 -1.54232e-09 -6.02745e-10 0 -1.20272e-09 -6.84784e-10 0 -8.73167e-10 -7.50465e-10 0 -5.71085e-10 -7.94932e-10 0 -2.76508e-10 -8.21936e-10 0 0 -8.34766e-10 0 -5.56881e-09 0 0 -5.54883e-09 4.04267e-11 0 -5.47961e-09 8.04085e-11 0 -5.3609e-09 1.14145e-10 0 -5.19613e-09 1.39458e-10 0 -4.99008e-09 1.50337e-10 0 -4.75991e-09 1.47627e-10 0 -4.49752e-09 1.26745e-10 0 -4.2406e-09 9.8026e-11 0 -3.96636e-09 5.57702e-11 0 -3.69109e-09 9.06208e-12 0 -3.28529e-09 -7.04006e-11 0 -2.87076e-09 -1.60217e-10 0 -2.46916e-09 -2.54918e-10 0 -2.05974e-09 -3.59163e-10 0 -1.67251e-09 -4.58147e-10 0 -1.30188e-09 -5.48227e-10 0 -9.43519e-10 -6.24615e-10 0 -6.1667e-10 -6.79537e-10 0 -2.98956e-10 -7.14692e-10 0 0 -7.3274e-10 0 -5.6613e-09 0 0 -5.64587e-09 5.23425e-11 0 -5.5826e-09 1.02532e-10 0 -5.47273e-09 1.43615e-10 0 -5.32249e-09 1.73934e-10 0 -5.1386e-09 1.87173e-10 0 -4.94036e-09 1.86364e-10 0 -4.71764e-09 1.66729e-10 0 -4.5095e-09 1.41827e-10 0 -4.28838e-09 1.04371e-10 0 -4.06811e-09 6.34859e-11 0 -3.62489e-09 2.28604e-12 0 -3.17224e-09 -7.12006e-11 0 -2.73206e-09 -1.51148e-10 0 -2.2812e-09 -2.45462e-10 0 -1.85307e-09 -3.38277e-10 0 -1.44206e-09 -4.27082e-10 0 -1.0447e-09 -5.05969e-10 0 -6.82447e-10 -5.65021e-10 0 -3.30655e-10 -6.04501e-10 0 0 -6.26377e-10 0 -5.79144e-09 0 0 -5.78282e-09 5.74227e-11 0 -5.73039e-09 1.10711e-10 0 -5.6365e-09 1.5247e-10 0 -5.50936e-09 1.81609e-10 0 -5.35676e-09 1.92225e-10 0 -5.19893e-09 1.89568e-10 0 -5.02262e-09 1.68361e-10 0 -4.86837e-09 1.44914e-10 0 -4.70339e-09 1.10024e-10 0 -4.53977e-09 7.23301e-11 0 -4.04548e-09 3.52803e-11 0 -3.54344e-09 -1.70264e-11 0 -3.05534e-09 -7.76312e-11 0 -2.55438e-09 -1.56677e-10 0 -2.07709e-09 -2.37288e-10 0 -1.61719e-09 -3.18519e-10 0 -1.17193e-09 -3.94257e-10 0 -7.65494e-10 -4.52914e-10 0 -3.70673e-10 -4.93748e-10 0 0 -5.18146e-10 0 -5.95505e-09 0 0 -5.95452e-09 5.6622e-11 0 -5.91596e-09 1.06979e-10 0 -5.84242e-09 1.43551e-10 0 -5.74356e-09 1.65683e-10 0 -5.62762e-09 1.68281e-10 0 -5.51577e-09 1.58275e-10 0 -5.39123e-09 1.30064e-10 0 -5.29704e-09 1.02771e-10 0 -5.19544e-09 6.55921e-11 0 -5.09788e-09 2.85776e-11 0 -4.54414e-09 2.73282e-11 0 -3.98195e-09 5.90704e-12 0 -3.43529e-09 -2.79305e-11 0 -2.87423e-09 -8.63608e-11 0 -2.33897e-09 -1.50313e-10 0 -1.82225e-09 -2.20039e-10 0 -1.32124e-09 -2.89074e-10 0 -8.63386e-10 -3.44341e-10 0 -4.18253e-10 -3.84326e-10 0 0 -4.10062e-10 0 -6.15328e-09 0 0 -6.16169e-09 5.04584e-11 0 -6.13924e-09 9.25058e-11 0 -6.08944e-09 1.18904e-10 0 -6.02281e-09 1.29198e-10 0 -5.94758e-09 1.19526e-10 0 -5.88586e-09 9.79872e-11 0 -5.81682e-09 5.88889e-11 0 -5.78661e-09 2.41557e-11 0 -5.75216e-09 -1.84489e-11 0 -5.72427e-09 -5.67953e-11 0 -5.10426e-09 -1.58525e-11 0 -4.47423e-09 1.27759e-13 0 -3.86132e-09 -1.19669e-12 0 -3.23273e-09 -3.44325e-11 0 -2.63275e-09 -7.78203e-11 0 -2.05302e-09 -1.32532e-10 0 -1.48993e-09 -1.91716e-10 0 -9.74608e-10 -2.40887e-10 0 -4.72732e-10 -2.78012e-10 0 0 -3.04031e-10 0 -6.3884e-09 0 0 -6.40627e-09 3.93313e-11 0 -6.40167e-09 6.82235e-11 0 -6.37848e-09 8.03198e-11 0 -6.34732e-09 7.50528e-11 0 -6.31612e-09 5.03142e-11 0 -6.3076e-09 1.50365e-11 0 -6.2962e-09 -3.63975e-11 0 -6.33096e-09 -7.94827e-11 0 -6.36233e-09 -1.28031e-10 0 -6.3992e-09 -1.69167e-10 0 -5.70676e-09 -8.71107e-11 0 -5.00465e-09 -3.2115e-11 0 -4.32158e-09 2.14548e-12 0 -3.6214e-09 -2.2589e-12 0 -2.95259e-09 -2.14845e-11 0 -2.30554e-09 -5.76418e-11 0 -1.67567e-09 -1.03829e-10 0 -1.09788e-09 -1.4419e-10 0 -5.33473e-10 -1.76511e-10 0 0 -2.01891e-10 0 -6.65797e-09 0 0 -6.68539e-09 2.34442e-11 0 -6.69992e-09 3.46931e-11 0 -6.70546e-09 2.88003e-11 0 -6.71219e-09 4.83513e-12 0 -6.72748e-09 -3.71923e-11 0 -6.7742e-09 -8.76479e-11 0 -6.8215e-09 -1.52124e-10 0 -6.92098e-09 -2.03788e-10 0 -7.01583e-09 -2.58381e-10 0 -7.11256e-09 -3.0369e-10 0 -6.34214e-09 -1.81906e-10 0 -5.56483e-09 -8.77877e-11 0 -4.80923e-09 -1.62621e-11 0 -4.0349e-09 1.09603e-11 0 -3.29447e-09 1.8944e-11 0 -2.57686e-09 4.51924e-12 0 -1.87645e-09 -2.5812e-11 0 -1.232e-09 -5.48844e-11 0 -5.99899e-10 -8.06331e-11 0 0 -1.04568e-10 0 -6.95481e-09 0 0 -6.99134e-09 2.80654e-12 0 -7.02591e-09 -7.8892e-12 0 -7.06143e-09 -3.54322e-11 0 -7.10752e-09 -8.11488e-11 0 -7.17086e-09 -1.42964e-10 0 -7.27385e-09 -2.10428e-10 0 -7.38029e-09 -2.89535e-10 0 -7.54471e-09 -3.51233e-10 0 -7.70358e-09 -4.13656e-10 0 -7.86351e-09 -4.64906e-10 0 -7.01014e-09 -2.98205e-10 0 -6.15336e-09 -1.63102e-10 0 -5.32224e-09 -5.27846e-11 0 -4.47092e-09 8.12141e-12 0 -3.65617e-09 4.55813e-11 0 -2.86505e-09 5.53291e-11 0 -2.09066e-09 4.31512e-11 0 -1.37581e-09 2.73916e-11 0 -6.71487e-10 9.70173e-12 0 0 -1.20711e-11 0 -7.27443e-09 0 0 -7.31921e-09 -2.27051e-11 0 -7.37434e-09 -5.96283e-11 0 -7.44039e-09 -1.12501e-10 0 -7.52659e-09 -1.83022e-10 0 -7.63877e-09 -2.67279e-10 0 -7.79831e-09 -3.53874e-10 0 -7.96392e-09 -4.49725e-10 0 -8.19388e-09 -5.23674e-10 0 -8.41926e-09 -5.96656e-10 0 -8.65037e-09 -6.55553e-10 0 -7.70958e-09 -4.34496e-10 0 -6.76844e-09 -2.55005e-10 0 -5.85838e-09 -1.04352e-10 0 -4.92718e-09 -8.28625e-12 0 -4.03557e-09 6.02649e-11 0 -3.16836e-09 9.60251e-11 0 -2.31687e-09 1.03847e-10 0 -1.52838e-09 1.03075e-10 0 -7.47834e-10 9.4727e-11 0 0 7.5755e-11 0 -7.62375e-09 0 0 -7.67599e-09 -5.37095e-11 0 -7.75149e-09 -1.2176e-10 0 -7.84844e-09 -2.03762e-10 0 -7.9754e-09 -3.02376e-10 0 -8.13709e-09 -4.1127e-10 0 -8.35358e-09 -5.18845e-10 0 -8.57836e-09 -6.32491e-10 0 -8.87416e-09 -7.19622e-10 0 -9.16649e-09 -8.03707e-10 0 -9.46675e-09 -8.70102e-10 0 -8.4342e-09 -5.90719e-10 0 -7.40536e-09 -3.63136e-10 0 -6.41384e-09 -1.70164e-10 0 -5.40076e-09 -3.752e-11 0 -4.43053e-09 6.35551e-11 0 -3.4854e-09 1.27112e-10 0 -2.55446e-09 1.56768e-10 0 -1.6895e-09 1.72745e-10 0 -8.28976e-10 1.75138e-10 0 0 1.59584e-10 0 -8.01194e-09 0 0 -8.07093e-09 -9.09269e-11 0 -8.1658e-09 -1.95737e-10 0 -8.29394e-09 -3.10803e-10 0 -8.46233e-09 -4.41054e-10 0 -8.67416e-09 -5.762e-10 0 -8.9482e-09 -7.06179e-10 0 -9.23222e-09 -8.37274e-10 0 -9.59373e-09 -9.36811e-10 0 -9.95047e-09 -1.02975e-09 0 -1.03052e-08 -1.10131e-09 0 -9.17676e-09 -7.66984e-10 0 -8.05889e-09 -4.8771e-10 0 -6.9845e-09 -2.49944e-10 0 -5.88863e-09 -7.92396e-11 0 -4.83895e-09 5.57108e-11 0 -3.81489e-09 1.4891e-10 0 -2.80293e-09 2.02313e-10 0 -1.85915e-09 2.36981e-10 0 -9.15033e-10 2.51701e-10 0 0 2.40175e-10 0 -8.43364e-09 0 0 -8.49802e-09 -1.34635e-10 0 -8.61116e-09 -2.81824e-10 0 -8.77024e-09 -4.33929e-10 0 -8.98036e-09 -5.98933e-10 0 -9.24272e-09 -7.61884e-10 0 -9.57391e-09 -9.14918e-10 0 -9.91686e-09 -1.06255e-09 0 -1.03431e-08 -1.17296e-09 0 -1.07595e-08 -1.27187e-09 0 -1.11571e-08 -1.34545e-09 0 -9.93241e-09 -9.59184e-10 0 -8.72509e-09 -6.26963e-10 0 -7.56703e-09 -3.42476e-10 0 -6.3879e-09 -1.32331e-10 0 -5.2584e-09 3.74041e-11 0 -4.1549e-09 1.6176e-10 0 -3.06083e-09 2.4057e-10 0 -2.03638e-09 2.95673e-10 0 -1.00552e-09 3.24197e-10 0 0 3.17326e-10 0 -8.869e-09 0 0 -8.93608e-09 -1.84671e-10 0 -9.06704e-09 -3.79107e-10 0 -9.256e-09 -5.7219e-10 0 -9.50745e-09 -7.73976e-10 0 -9.82032e-09 -9.66731e-10 0 -1.02061e-08 -1.14237e-09 0 -1.06069e-08 -1.30584e-09 0 -1.10958e-08 -1.42577e-09 0 -1.15657e-08 -1.52919e-09 0 -1.2013e-08 -1.60218e-09 0 -1.06986e-08 -1.15916e-09 0 -9.40127e-09 -7.77226e-10 0 -8.15887e-09 -4.45638e-10 0 -6.89575e-09 -1.94931e-10 0 -5.68613e-09 9.70902e-12 0 -4.50284e-09 1.66023e-10 0 -3.32575e-09 2.71319e-10 0 -2.21935e-09 3.48029e-10 0 -1.09933e-09 3.91437e-10 0 0 3.89867e-10 0 -9.3077e-09 0 0 -9.37429e-09 -2.41393e-10 0 -9.52264e-09 -4.87819e-10 0 -9.73994e-09 -7.25739e-10 0 -1.0032e-08 -9.65922e-10 0 -1.03948e-08 -1.19026e-09 0 -1.08313e-08 -1.38718e-09 0 -1.12887e-08 -1.56567e-09 0 -1.1837e-08 -1.69354e-09 0 -1.23541e-08 -1.80097e-09 0 -1.28709e-08 -1.8727e-09 0 -1.14731e-08 -1.36193e-09 0 -1.00847e-08 -9.3524e-10 0 -8.75739e-09 -5.57665e-10 0 -7.40962e-09 -2.65439e-10 0 -6.11974e-09 -2.63265e-11 0 -4.85669e-09 1.62228e-10 0 -3.59606e-09 2.94718e-10 0 -2.40691e-09 3.93863e-10 0 -1.19586e-09 4.53054e-10 0 0 4.57454e-10 0 -9.78028e-09 0 0 -9.84539e-09 -3.07308e-10 0 -1.00077e-08 -6.12901e-10 0 -1.02523e-08 -8.99281e-10 0 -1.05851e-08 -1.18177e-09 0 -1.0996e-08 -1.4365e-09 0 -1.14804e-08 -1.65347e-09 0 -1.19955e-08 -1.8444e-09 0 -1.25978e-08 -1.97669e-09 0 -1.31623e-08 -2.08654e-09 0 -1.37574e-08 -2.16373e-09 0 -1.22542e-08 -1.57505e-09 0 -1.07719e-08 -1.09938e-09 0 -9.35945e-09 -6.782e-10 0 -7.92766e-09 -3.43284e-10 0 -6.55799e-09 -6.97564e-11 0 -5.21665e-09 1.51585e-10 0 -3.87322e-09 3.1246e-10 0 -2.60076e-09 4.355e-10 0 -1.29663e-09 5.12125e-10 0 0 5.23203e-10 0 -1.03236e-08 0 0 -1.039e-08 -3.85186e-10 0 -1.05588e-08 -7.59986e-10 0 -1.08304e-08 -1.09841e-09 0 -1.12047e-08 -1.42961e-09 0 -1.16602e-08 -1.71015e-09 0 -1.21916e-08 -1.94625e-09 0 -1.27679e-08 -2.14488e-09 0 -1.34168e-08 -2.27602e-09 0 -1.40358e-08 -2.38474e-09 0 -1.46993e-08 -2.48025e-09 0 -1.30406e-08 -1.80853e-09 0 -1.14596e-08 -1.2685e-09 0 -9.96181e-09 -8.07118e-10 0 -8.44824e-09 -4.2813e-10 0 -6.9998e-09 -1.19668e-10 0 -5.58328e-09 1.354e-10 0 -4.15923e-09 3.26495e-10 0 -2.80311e-09 4.75658e-10 0 -1.4035e-09 5.72325e-10 0 0 5.90719e-10 0 -1.08845e-08 0 0 -1.09829e-08 -4.71839e-10 0 -1.11436e-08 -9.24655e-10 0 -1.14475e-08 -1.32481e-09 0 -1.18583e-08 -1.70363e-09 0 -1.23568e-08 -2.00752e-09 0 -1.29332e-08 -2.26229e-09 0 -1.35722e-08 -2.46007e-09 0 -1.42583e-08 -2.58907e-09 0 -1.49436e-08 -2.68234e-09 0 -1.55738e-08 -2.7604e-09 0 -1.38344e-08 -2.06302e-09 0 -1.21506e-08 -1.44286e-09 0 -1.05609e-08 -9.41758e-10 0 -8.96957e-09 -5.19093e-10 0 -7.44126e-09 -1.74994e-10 0 -5.95352e-09 1.13702e-10 0 -4.4511e-09 3.36359e-10 0 -3.01233e-09 5.12373e-10 0 -1.51578e-09 6.31799e-10 0 0 6.54966e-10 0 -1.13199e-08 0 0 -1.15339e-08 -5.5816e-10 0 -1.16618e-08 -1.09257e-09 0 -1.2014e-08 -1.5763e-09 0 -1.24449e-08 -1.98446e-09 0 -1.29897e-08 -2.31679e-09 0 -1.36064e-08 -2.59037e-09 0 -1.43026e-08 -2.77343e-09 0 -1.50148e-08 -2.91024e-09 0 -1.57804e-08 -2.95451e-09 0 -1.61145e-08 -2.87795e-09 0 -1.46408e-08 -2.33009e-09 0 -1.28531e-08 -1.62407e-09 0 -1.11529e-08 -1.07701e-09 0 -9.48972e-09 -6.14756e-10 0 -7.87563e-09 -2.34521e-10 0 -6.32074e-09 8.52694e-11 0 -4.74097e-09 3.39224e-10 0 -3.22299e-09 5.39057e-10 0 -1.63019e-09 6.83193e-10 0 0 7.02266e-10 0 </DataArray> 
<DataArray type="Float32" Name="stress" format="ascii" NumberOfComponents="9"> 
-3.18887e-05 -7.153e-07 0 -7.153e-07 -8.01418e-05 0 0 0 0 -4.45069e-05 -2.19458e-06 0 -2.19458e-06 -0.000108842 0 0 0 0 -3.51533e-05 -3.29686e-06 0 -3.29686e-06 -8.90702e-05 0 0 0 0 -3.1254e-05 -4.57174e-06 0 -4.57174e-06 -8.28068e-05 0 0 0 0 -1.25783e-05 -5.67978e-07 0 -5.67978e-07 -5.28653e-05 0 0 0 0 7.37047e-06 4.18422e-06 0 4.18422e-06 -2.23877e-05 0 0 0 0 4.4266e-05 1.53354e-05 0 1.53354e-05 2.31891e-05 0 0 0 0 0.000101516 3.58127e-05 0 3.58127e-05 8.32579e-05 0 0 0 0 0.00014504 4.6489e-05 0 4.6489e-05 0.000125362 0 0 0 0 0.000272701 8.96813e-05 0 8.96813e-05 0.000225632 0 0 0 0 0.000270655 8.58361e-05 0 8.58361e-05 0.000214605 0 0 0 0 0.00040841 0.000129404 0 0.000129404 0.000308967 0 0 0 0 0.000433005 0.00012571 0 0.00012571 0.000306768 0 0 0 0 0.000499163 0.000129658 0 0.000129658 0.000330459 0 0 0 0 0.000533967 0.000121514 0 0.000121514 0.000323802 0 0 0 0 0.000550406 0.000105375 0 0.000105375 0.000309638 0 0 0 0 0.00056562 8.77483e-05 0 8.77483e-05 0.000296061 0 0 0 0 0.000571376 6.57199e-05 0 6.57199e-05 0.000280664 0 0 0 0 0.000529432 4.32716e-05 0 4.32716e-05 0.000251646 0 0 0 0 0.000579598 2.07137e-05 0 2.07137e-05 0.000264734 0 0 0 0 0.000429412 5.00883e-06 0 5.00883e-06 0.000198502 0 0 0 0 -6.88313e-07 8.17524e-07 0 8.17524e-07 -1.08324e-05 0 0 0 0 6.38924e-07 6.24479e-06 0 6.24479e-06 -1.22423e-05 0 0 0 0 1.21227e-05 1.44919e-05 0 1.44919e-05 -1.95877e-06 0 0 0 0 2.90288e-05 2.28393e-05 0 2.28393e-05 9.49052e-06 0 0 0 0 5.78296e-05 3.37431e-05 0 3.37431e-05 2.70131e-05 0 0 0 0 9.2224e-05 4.27311e-05 0 4.27311e-05 4.72203e-05 0 0 0 0 0.000139912 5.26784e-05 0 5.26784e-05 7.17741e-05 0 0 0 0 0.000197775 6.26193e-05 0 6.26193e-05 9.84583e-05 0 0 0 0 0.000237763 6.03179e-05 0 6.03179e-05 0.000118961 0 0 0 0 0.000342372 7.65186e-05 0 7.65186e-05 0.000161143 0 0 0 0 0.000321612 5.29098e-05 0 5.29098e-05 0.000155073 0 0 0 0 0.000422537 6.71399e-05 0 6.71399e-05 0.000204629 0 0 0 0 0.000397038 4.89106e-05 0 4.89106e-05 0.000204442 0 0 0 0 0.000434145 4.65377e-05 0 4.65377e-05 0.000230954 0 0 0 0 0.000444806 4.10338e-05 0 4.10338e-05 0.000242802 0 0 0 0 0.000449327 3.53389e-05 0 3.53389e-05 0.000250519 0 0 0 0 0.000459555 3.06075e-05 0 3.06075e-05 0.000255933 0 0 0 0 0.000460677 2.38e-05 0 2.38e-05 0.000254617 0 0 0 0 0.000434127 1.64971e-05 0 1.64971e-05 0.000241677 0 0 0 0 0.000472439 7.90171e-06 0 7.90171e-06 0.000254641 0 0 0 0 0.000352736 2.75966e-06 0 2.75966e-06 0.00020229 0 0 0 0 3.50803e-05 1.82362e-06 0 1.82362e-06 3.16534e-05 0 0 0 0 4.31226e-05 1.01471e-05 0 1.01471e-05 4.16268e-05 0 0 0 0 5.56544e-05 2.22898e-05 0 2.22898e-05 4.43352e-05 0 0 0 0 7.732e-05 3.30182e-05 0 3.30182e-05 5.32473e-05 0 0 0 0 0.00010939 4.45286e-05 0 4.45286e-05 6.20267e-05 0 0 0 0 0.00014608 5.16337e-05 0 5.16337e-05 7.26314e-05 0 0 0 0 0.000193121 5.73684e-05 0 5.73684e-05 8.52417e-05 0 0 0 0 0.000246832 6.06337e-05 0 6.06337e-05 9.90709e-05 0 0 0 0 0.000280214 5.17909e-05 0 5.17909e-05 0.000111631 0 0 0 0 0.000369887 5.74453e-05 0 5.74453e-05 0.000135539 0 0 0 0 0.000330652 2.55094e-05 0 2.55094e-05 0.00012995 0 0 0 0 0.00042417 3.31215e-05 0 3.31215e-05 0.000165305 0 0 0 0 0.000392801 1.5166e-05 0 1.5166e-05 0.000173498 0 0 0 0 0.000418794 1.08939e-05 0 1.08939e-05 0.000198593 0 0 0 0 0.000419465 5.84633e-06 0 5.84633e-06 0.000215452 0 0 0 0 0.000415243 2.80591e-06 0 2.80591e-06 0.000228885 0 0 0 0 0.000418589 2.14617e-06 0 2.14617e-06 0.000240288 0 0 0 0 0.000415264 1.75838e-06 0 1.75838e-06 0.000245283 0 0 0 0 0.000389874 1.32827e-06 0 1.32827e-06 0.000238532 0 0 0 0 0.000423636 5.98105e-07 0 5.98105e-07 0.00025307 0 0 0 0 0.00032163 1.66433e-06 0 1.66433e-06 0.000209091 0 0 0 0 7.97673e-05 2.60198e-06 0 2.60198e-06 6.33267e-05 0 0 0 0 9.14458e-05 1.14261e-05 0 1.14261e-05 7.78704e-05 0 0 0 0 0.000105329 2.41536e-05 0 2.41536e-05 7.61428e-05 0 0 0 0 0.000129328 3.37861e-05 0 3.37861e-05 8.25954e-05 0 0 0 0 0.000161686 4.27217e-05 0 4.27217e-05 8.65457e-05 0 0 0 0 0.00019604 4.57274e-05 0 4.57274e-05 9.1883e-05 0 0 0 0 0.000236648 4.64358e-05 0 4.64358e-05 9.88451e-05 0 0 0 0 0.000280534 4.49612e-05 0 4.49612e-05 0.000107433 0 0 0 0 0.000302019 3.29954e-05 0 3.29954e-05 0.00011682 0 0 0 0 0.000374612 3.57217e-05 0 3.57217e-05 0.000133062 0 0 0 0 0.000333285 1.06207e-05 0 1.06207e-05 0.000140512 0 0 0 0 0.000419859 2.00345e-05 0 2.00345e-05 0.000163453 0 0 0 0 0.000388708 5.71343e-06 0 5.71343e-06 0.000170152 0 0 0 0 0.000409849 9.32727e-07 0 9.32727e-07 0.000187204 0 0 0 0 0.000406676 -4.94071e-06 0 -4.94071e-06 0.000200371 0 0 0 0 0.000398558 -8.85478e-06 0 -8.85478e-06 0.000212509 0 0 0 0 0.000398359 -9.57092e-06 0 -9.57092e-06 0.000225193 0 0 0 0 0.000392917 -8.43741e-06 0 -8.43741e-06 0.000233449 0 0 0 0 0.000367236 -6.29778e-06 0 -6.29778e-06 0.000230498 0 0 0 0 0.000399406 -3.12098e-06 0 -3.12098e-06 0.000247255 0 0 0 0 0.000306206 9.48497e-07 0 9.48497e-07 0.00020797 0 0 0 0 0.000118376 2.97353e-06 0 2.97353e-06 8.43608e-05 0 0 0 0 0.000131648 1.13645e-05 0 1.13645e-05 0.000100239 0 0 0 0 0.000146289 2.35694e-05 0 2.35694e-05 9.6275e-05 0 0 0 0 0.000171325 3.18374e-05 0 3.18374e-05 0.000101524 0 0 0 0 0.00020315 3.86059e-05 0 3.86059e-05 0.000103128 0 0 0 0 0.000235737 3.90833e-05 0 3.90833e-05 0.000106756 0 0 0 0 0.000272405 3.71975e-05 0 3.71975e-05 0.000111872 0 0 0 0 0.000310292 3.35879e-05 0 3.35879e-05 0.000118142 0 0 0 0 0.000325404 2.07273e-05 0 2.07273e-05 0.000126528 0 0 0 0 0.00038886 2.25793e-05 0 2.25793e-05 0.000137851 0 0 0 0 0.000343391 2.48201e-07 0 2.48201e-07 0.000147263 0 0 0 0 0.000421225 9.96386e-06 0 9.96386e-06 0.000161781 0 0 0 0 0.00038677 -2.44063e-06 0 -2.44063e-06 0.000166548 0 0 0 0 0.00040505 -6.56827e-06 0 -6.56827e-06 0.000179964 0 0 0 0 0.000400226 -1.19458e-05 0 -1.19458e-05 0.000191588 0 0 0 0 0.000391174 -1.5647e-05 0 -1.5647e-05 0.000203458 0 0 0 0 0.00039008 -1.60843e-05 0 -1.60843e-05 0.000217038 0 0 0 0 0.000383826 -1.41415e-05 0 -1.41415e-05 0.000227008 0 0 0 0 0.000358753 -1.05633e-05 0 -1.05633e-05 0.000226545 0 0 0 0 0.000390188 -5.31416e-06 0 -5.31416e-06 0.00024473 0 0 0 0 0.000300033 5.60963e-07 0 5.60963e-07 0.000207441 0 0 0 0 0.000149465 3.13869e-06 0 3.13869e-06 9.72513e-05 0 0 0 0 0.000162847 1.05567e-05 0 1.05567e-05 0.000112557 0 0 0 0 0.000177318 2.1839e-05 0 2.1839e-05 0.000107347 0 0 0 0 0.000201763 2.88396e-05 0 2.88396e-05 0.000111494 0 0 0 0 0.000231916 3.41374e-05 0 3.41374e-05 0.000111624 0 0 0 0 0.00026223 3.33491e-05 0 3.33491e-05 0.000114513 0 0 0 0 0.000296152 3.06435e-05 0 3.06435e-05 0.000118952 0 0 0 0 0.000330892 2.66903e-05 0 2.66903e-05 0.00012418 0 0 0 0 0.000343943 1.41325e-05 0 1.41325e-05 0.000132732 0 0 0 0 0.000405511 1.60528e-05 0 1.60528e-05 0.000141805 0 0 0 0 0.00035496 -7.93211e-06 0 -7.93211e-06 0.00014677 0 0 0 0 0.000428383 8.69644e-07 0 8.69644e-07 0.000159092 0 0 0 0 0.000390924 -1.06271e-05 0 -1.06271e-05 0.000165183 0 0 0 0 0.000407693 -1.36179e-05 0 -1.36179e-05 0.000178727 0 0 0 0 0.000401791 -1.76679e-05 0 -1.76679e-05 0.000190341 0 0 0 0 0.000392245 -2.03463e-05 0 -2.03463e-05 0.000202033 0 0 0 0 0.000390722 -2.01113e-05 0 -2.01113e-05 0.000215446 0 0 0 0 0.000383872 -1.74618e-05 0 -1.74618e-05 0.000225589 0 0 0 0 0.000358949 -1.30377e-05 0 -1.30377e-05 0.000225969 0 0 0 0 0.000390382 -6.67901e-06 0 -6.67901e-06 0.000244959 0 0 0 0 0.000300314 3.35727e-07 0 3.35727e-07 0.000208181 0 0 0 0 0.000177599 3.34207e-06 0 3.34207e-06 0.000105834 0 0 0 0 0.000190317 9.48313e-06 0 9.48313e-06 0.000119527 0 0 0 0 0.000204268 1.97522e-05 0 1.97522e-05 0.000113726 0 0 0 0 0.000227331 2.55157e-05 0 2.55157e-05 0.000116668 0 0 0 0 0.000255447 2.97198e-05 0 2.97198e-05 0.000115805 0 0 0 0 0.000283091 2.80642e-05 0 2.80642e-05 0.000118027 0 0 0 0 0.000314348 2.50057e-05 0 2.50057e-05 0.000121849 0 0 0 0 0.000346615 2.1163e-05 0 2.1163e-05 0.000126492 0 0 0 0 0.000357926 8.92649e-06 0 8.92649e-06 0.000135353 0 0 0 0 0.000419178 1.12029e-05 0 1.12029e-05 0.000143586 0 0 0 0 0.000365708 -1.37307e-05 0 -1.37307e-05 0.000148228 0 0 0 0 0.000439635 -5.30649e-06 0 -5.30649e-06 0.000160075 0 0 0 0 0.000400576 -1.62052e-05 0 -1.62052e-05 0.000168005 0 0 0 0 0.000416373 -1.84937e-05 0 -1.84937e-05 0.000181604 0 0 0 0 0.000409274 -2.1519e-05 0 -2.1519e-05 0.000192887 0 0 0 0 0.000398758 -2.33734e-05 0 -2.33734e-05 0.000203823 0 0 0 0 0.000396655 -2.26095e-05 0 -2.26095e-05 0.000216445 0 0 0 0 0.000389339 -1.94315e-05 0 -1.94315e-05 0.000226203 0 0 0 0 0.000363815 -1.45675e-05 0 -1.45675e-05 0.000226514 0 0 0 0 0.000396147 -7.52519e-06 0 -7.52519e-06 0.000246294 0 0 0 0 0.00030484 1.57953e-07 0 1.57953e-07 0.000209305 0 0 0 0 0.000206997 3.59296e-06 0 3.59296e-06 0.000113135 0 0 0 0 0.000218653 8.42391e-06 0 8.42391e-06 0.000124351 0 0 0 0 0.000232337 1.76353e-05 0 1.76353e-05 0.000118784 0 0 0 0 0.000254183 2.21464e-05 0 2.21464e-05 0.000120758 0 0 0 0 0.000280806 2.53606e-05 0 2.53606e-05 0.000119624 0 0 0 0 0.000306334 2.28066e-05 0 2.28066e-05 0.000121672 0 0 0 0 0.000335317 1.92369e-05 0 1.92369e-05 0.000125264 0 0 0 0 0.000365269 1.53014e-05 0 1.53014e-05 0.000129862 0 0 0 0 0.000373623 3.02457e-06 0 3.02457e-06 0.000138919 0 0 0 0 0.000432848 5.80335e-06 0 5.80335e-06 0.000146521 0 0 0 0 0.000377591 -1.70873e-05 0 -1.70873e-05 0.000156083 0 0 0 0 0.000452382 -7.92199e-06 0 -7.92199e-06 0.000164626 0 0 0 0 0.000411728 -1.83677e-05 0 -1.83677e-05 0.000171941 0 0 0 0 0.000426727 -2.05633e-05 0 -2.05633e-05 0.000184029 0 0 0 0 0.000418613 -2.32929e-05 0 -2.32929e-05 0.000194491 0 0 0 0 0.000407227 -2.49066e-05 0 -2.49066e-05 0.000204709 0 0 0 0 0.00040488 -2.39729e-05 0 -2.39729e-05 0.00021696 0 0 0 0 0.000397513 -2.05692e-05 0 -2.05692e-05 0.000226693 0 0 0 0 0.000371314 -1.55262e-05 0 -1.55262e-05 0.000226992 0 0 0 0 0.000405349 -8.02913e-06 0 -8.02913e-06 0.000247843 0 0 0 0 0.000311998 1.04148e-08 0 1.04148e-08 0.000210181 0 0 0 0 0.000236974 3.74971e-06 0 3.74971e-06 0.000119659 0 0 0 0 0.000247126 7.41618e-06 0 7.41618e-06 0.000127466 0 0 0 0 0.000260777 1.55096e-05 0 1.55096e-05 0.000122944 0 0 0 0 0.000281532 1.88049e-05 0 1.88049e-05 0.000124212 0 0 0 0 0.000307036 2.11128e-05 0 2.11128e-05 0.000123428 0 0 0 0 0.000330945 1.7702e-05 0 1.7702e-05 0.00012588 0 0 0 0 0.000358118 1.36122e-05 0 1.36122e-05 0.00012979 0 0 0 0 0.000386187 9.58841e-06 0 9.58841e-06 0.000134978 0 0 0 0 0.000391385 -2.72924e-06 0 -2.72924e-06 0.000144405 0 0 0 0 0.000448294 9.4007e-07 0 9.4007e-07 0.000151703 0 0 0 0 0.000390715 -1.88544e-05 0 -1.88544e-05 0.000165792 0 0 0 0 0.000464603 -8.43588e-06 0 -8.43588e-06 0.000169509 0 0 0 0 0.000421983 -1.84601e-05 0 -1.84601e-05 0.000174818 0 0 0 0 0.000436606 -2.07265e-05 0 -2.07265e-05 0.000185008 0 0 0 0 0.000427947 -2.35493e-05 0 -2.35493e-05 0.000194663 0 0 0 0 0.000416155 -2.52613e-05 0 -2.52613e-05 0.000204434 0 0 0 0 0.000414032 -2.43998e-05 0 -2.43998e-05 0.000216723 0 0 0 0 0.000406963 -2.10377e-05 0 -2.10377e-05 0.000226663 0 0 0 0 0.00038041 -1.59956e-05 0 -1.59956e-05 0.00022713 0 0 0 0 0.000416691 -8.28881e-06 0 -8.28881e-06 0.0002492 0 0 0 0 0.00032072 -9.86665e-08 0 -9.86665e-08 0.000210526 0 0 0 0 0.000260962 3.7164e-06 0 3.7164e-06 0.0001227 0 0 0 0 0.000269211 6.37114e-06 0 6.37114e-06 0.000126673 0 0 0 0 0.000283039 1.3431e-05 0 1.3431e-05 0.000123752 0 0 0 0 0.000302651 1.57527e-05 0 1.57527e-05 0.000124552 0 0 0 0 0.000327126 1.73995e-05 0 1.73995e-05 0.000124464 0 0 0 0 0.000349738 1.34962e-05 0 1.34962e-05 0.000127737 0 0 0 0 0.000375555 9.29138e-06 0 9.29138e-06 0.000132376 0 0 0 0 0.000402588 5.65939e-06 0 5.65939e-06 0.000138628 0 0 0 0 0.000406225 -6.20247e-06 0 -6.20247e-06 0.000149002 0 0 0 0 0.000464042 -1.10589e-06 0 -1.10589e-06 0.000157146 0 0 0 0 0.000402904 -2.08612e-05 0 -2.08612e-05 0.000169748 0 0 0 0 0.000476607 -9.55699e-06 0 -9.55699e-06 0.000172901 0 0 0 0 0.000432094 -1.89717e-05 0 -1.89717e-05 0.000177645 0 0 0 0 0.000446822 -2.08652e-05 0 -2.08652e-05 0.000186875 0 0 0 0 0.000437869 -2.3547e-05 0 -2.3547e-05 0.000195865 0 0 0 0 0.000425917 -2.52186e-05 0 -2.52186e-05 0.000205186 0 0 0 0 0.000424225 -2.43634e-05 0 -2.43634e-05 0.000217422 0 0 0 0 0.000417594 -2.10556e-05 0 -2.10556e-05 0.000227416 0 0 0 0 0.000390897 -1.60658e-05 0 -1.60658e-05 0.000227947 0 0 0 0 0.000429764 -8.35538e-06 0 -8.35538e-06 0.000251197 0 0 0 0 0.000330746 -1.49516e-07 0 -1.49516e-07 0.000211276 0 0 0 0 0.000277674 3.71417e-06 0 3.71417e-06 0.000121364 0 0 0 0 0.000283979 5.23618e-06 0 5.23618e-06 0.000122045 0 0 0 0 0.000298016 1.14316e-05 0 1.14316e-05 0.000120795 0 0 0 0 0.000316391 1.30402e-05 0 1.30402e-05 0.000121405 0 0 0 0 0.000339691 1.42227e-05 0 1.42227e-05 0.000122048 0 0 0 0 0.000361122 1.01793e-05 0 1.01793e-05 0.000126336 0 0 0 0 0.00038577 6.23111e-06 0 6.23111e-06 0.000131857 0 0 0 0 0.000412133 3.34226e-06 0 3.34226e-06 0.000139185 0 0 0 0 0.000415272 -7.75376e-06 0 -7.75376e-06 0.000150784 0 0 0 0 0.000476062 -1.19933e-06 0 -1.19933e-06 0.000160206 0 0 0 0 0.000414048 -2.24358e-05 0 -2.24358e-05 0.000171236 0 0 0 0 0.000489931 -1.09276e-05 0 -1.09276e-05 0.000176889 0 0 0 0 0.000443128 -1.99091e-05 0 -1.99091e-05 0.000181659 0 0 0 0 0.00045803 -2.11445e-05 0 -2.11445e-05 0.000190383 0 0 0 0 0.000448719 -2.3465e-05 0 -2.3465e-05 0.000198603 0 0 0 0 0.000436572 -2.49499e-05 0 -2.49499e-05 0.000207268 0 0 0 0 0.000435346 -2.40129e-05 0 -2.40129e-05 0.000219214 0 0 0 0 0.000429201 -2.07218e-05 0 -2.07218e-05 0.000229048 0 0 0 0 0.000402302 -1.58354e-05 0 -1.58354e-05 0.000229387 0 0 0 0 0.000444008 -8.2606e-06 0 -8.2606e-06 0.000253759 0 0 0 0 0.000341581 -1.70497e-07 0 -1.70497e-07 0.000212393 0 0 0 0 0.000294807 4.03279e-06 0 4.03279e-06 0.000118935 0 0 0 0 0.000299577 4.27281e-06 0 4.27281e-06 0.000117258 0 0 0 0 0.000313614 9.87265e-06 0 9.87265e-06 0.000117551 0 0 0 0 0.00033091 1.09775e-05 0 1.09775e-05 0.000118317 0 0 0 0 0.000353108 1.18458e-05 0 1.18458e-05 0.000119742 0 0 0 0 0.000373574 7.79425e-06 0 7.79425e-06 0.000125188 0 0 0 0 0.000397371 4.24135e-06 0 4.24135e-06 0.00013173 0 0 0 0 0.000423114 1.99163e-06 0 1.99163e-06 0.000139983 0 0 0 0 0.00042563 -8.58183e-06 0 -8.58183e-06 0.000152628 0 0 0 0 0.000488077 -1.23776e-06 0 -1.23776e-06 0.00016254 0 0 0 0 0.000425895 -2.25063e-05 0 -2.25063e-05 0.000176809 0 0 0 0 0.000504708 -1.11861e-05 0 -1.11861e-05 0.000181995 0 0 0 0 0.000454818 -2.04527e-05 0 -2.04527e-05 0.000185954 0 0 0 0 0.000469806 -2.11528e-05 0 -2.11528e-05 0.000194358 0 0 0 0 0.000460036 -2.31621e-05 0 -2.31621e-05 0.0002018 0 0 0 0 0.000447636 -2.44814e-05 0 -2.44814e-05 0.000209777 0 0 0 0 0.000446962 -2.3476e-05 0 -2.3476e-05 0.000221489 0 0 0 0 0.00044142 -2.02334e-05 0 -2.02334e-05 0.000231223 0 0 0 0 0.00041425 -1.55049e-05 0 -1.55049e-05 0.000231353 0 0 0 0 0.000459092 -8.10235e-06 0 -8.10235e-06 0.000257001 0 0 0 0 0.000353043 -1.7606e-07 0 -1.7606e-07 0.000214083 0 0 0 0 0.000320559 4.47972e-06 0 4.47972e-06 0.000119872 0 0 0 0 0.000323824 3.79651e-06 0 3.79651e-06 0.000115101 0 0 0 0 0.000337779 9.06859e-06 0 9.06859e-06 0.000117566 0 0 0 0 0.000354246 9.77071e-06 0 9.77071e-06 0.000118573 0 0 0 0 0.000375894 1.05223e-05 0 1.05223e-05 0.000121311 0 0 0 0 0.000395785 6.40456e-06 0 6.40456e-06 0.000128154 0 0 0 0 0.00041934 3.22186e-06 0 3.22186e-06 0.000136032 0 0 0 0 0.000444815 1.31613e-06 0 1.31613e-06 0.000145592 0 0 0 0 0.000446162 -9.26544e-06 0 -9.26544e-06 0.000158936 0 0 0 0 0.000508413 -1.51792e-06 0 -1.51792e-06 0.000169224 0 0 0 0 0.000439537 -2.1594e-05 0 -2.1594e-05 0.000185775 0 0 0 0 0.000519204 -9.77782e-06 0 -9.77782e-06 0.000186541 0 0 0 0 0.000466146 -1.99853e-05 0 -1.99853e-05 0.000189138 0 0 0 0 0.000481229 -2.05406e-05 0 -2.05406e-05 0.000197475 0 0 0 0 0.000471031 -2.25105e-05 0 -2.25105e-05 0.000204313 0 0 0 0 0.000458461 -2.38033e-05 0 -2.38033e-05 0.00021183 0 0 0 0 0.000458538 -2.28238e-05 0 -2.28238e-05 0.00022368 0 0 0 0 0.000453832 -1.9737e-05 0 -1.9737e-05 0.000233634 0 0 0 0 0.000426615 -1.51907e-05 0 -1.51907e-05 0.000233899 0 0 0 0 0.000474937 -7.95537e-06 0 -7.95537e-06 0.000261151 0 0 0 0 0.000365418 -1.64244e-07 0 -1.64244e-07 0.000216752 0 0 0 0 0.000351989 4.58383e-06 0 4.58383e-06 0.000123787 0 0 0 0 0.000352845 3.7496e-06 0 3.7496e-06 0.000113338 0 0 0 0 0.000367076 8.85088e-06 0 8.85088e-06 0.00011944 0 0 0 0 0.000382664 9.18222e-06 0 9.18222e-06 0.000120387 0 0 0 0 0.00040438 1.00333e-05 0 1.00333e-05 0.000125282 0 0 0 0 0.000424047 5.835e-06 0 5.835e-06 0.000133797 0 0 0 0 0.000447731 3.00232e-06 0 3.00232e-06 0.000143302 0 0 0 0 0.000473598 1.37768e-06 0 1.37768e-06 0.000155058 0 0 0 0 0.000473609 -9.5265e-06 0 -9.5265e-06 0.000168862 0 0 0 0 0.000536212 -8.27163e-07 0 -8.27163e-07 0.000181122 0 0 0 0 0.000454003 -2.08169e-05 0 -2.08169e-05 0.000192031 0 0 0 0 0.000532569 -7.27873e-06 0 -7.27873e-06 0.00019042 0 0 0 0 0.000476989 -1.85688e-05 0 -1.85688e-05 0.000191761 0 0 0 0 0.000492076 -1.93399e-05 0 -1.93399e-05 0.000199997 0 0 0 0 0.000481473 -2.152e-05 0 -2.152e-05 0.000206282 0 0 0 0 0.00046882 -2.28869e-05 0 -2.28869e-05 0.00021348 0 0 0 0 0.000469795 -2.19992e-05 0 -2.19992e-05 0.000225732 0 0 0 0 0.000466145 -1.91583e-05 0 -1.91583e-05 0.000236128 0 0 0 0 0.000439256 -1.4798e-05 0 -1.4798e-05 0.000236857 0 0 0 0 0.000491333 -7.77625e-06 0 -7.77625e-06 0.000265934 0 0 0 0 0.000378778 -1.43048e-07 0 -1.43048e-07 0.000220247 0 0 0 0 0.000368159 4.2361e-06 0 4.2361e-06 0.000120669 0 0 0 0 0.000365169 3.54699e-06 0 3.54699e-06 0.000103258 0 0 0 0 0.000380483 8.44823e-06 0 8.44823e-06 0.000113938 0 0 0 0 0.000394739 8.53442e-06 0 8.53442e-06 0.000114758 0 0 0 0 0.000416402 9.39905e-06 0 9.39905e-06 0.000122095 0 0 0 0 0.000436201 5.4782e-06 0 5.4782e-06 0.000132697 0 0 0 0 0.000459078 2.97429e-06 0 2.97429e-06 0.000143729 0 0 0 0 0.000485461 1.83212e-06 0 1.83212e-06 0.000158123 0 0 0 0 0.000484559 -9.04219e-06 0 -9.04219e-06 0.000172591 0 0 0 0 0.000549194 1.8302e-06 0 1.8302e-06 0.00018831 0 0 0 0 0.000465909 -1.9375e-05 0 -1.9375e-05 0.000194005 0 0 0 0 0.000546628 -4.96882e-06 0 -4.96882e-06 0.000198116 0 0 0 0 0.000488202 -1.68332e-05 0 -1.68332e-05 0.000196098 0 0 0 0 0.00050291 -1.77939e-05 0 -1.77939e-05 0.000203317 0 0 0