<?xml version="1.0"?> 
<VTKFile type="StructuredGrid" version="0.1"> 
<StructuredGrid WholeExtent="0 20 0 20 0 0"> 
<Piece Extent="0 20 0 20 0 0"> 
<PointData>
<DataArray type="Float32" Name="displacement" format="ascii" NumberOfComponents="3"> 
0.000128696 -1.88938e-16 0 0.308822 0.308833 0 0.588072 0.588084 0 0.808939 0.808929 0 0.950655 0.95065 0 1.00063 1.00063 0 0.950696 0.9507 0 0.808987 0.808985 0 0.588065 0.588061 0 0.308726 0.308726 0 1.11022e-16 2.78076e-06 0 -0.308726 -0.308726 0 -0.588065 -0.588068 0 -0.808987 -0.808988 0 -0.950696 -0.950691 0 -1.00063 -1.00062 0 -0.950655 -0.950661 0 -0.808939 -0.808948 0 -0.588072 -0.58806 0 -0.308822 -0.308811 0 -0.000128696 -0.000257392 0 -1.09436e-05 -0.308833 0 0.293766 -3.44557e-05 0 0.559207 0.309269 0 0.76913 0.587535 0 0.903915 0.808551 0 0.951506 0.951428 0 0.904067 0.999364 0 0.769322 0.950968 0 0.559229 0.809156 0 0.293576 0.587274 0 -1.18057e-05 0.309101 0 -0.293575 0.000109937 0 -0.559181 -0.309262 0 -0.769239 -0.587566 0 -0.903985 -0.808607 0 -0.951472 -0.951447 0 -0.903971 -0.999268 0 -0.76926 -0.950829 0 -0.559324 -0.809215 0 -0.293803 -0.587514 0 1.09436e-05 -0.308811 0 -1.19454e-05 -0.588084 0 0.249966 -0.309251 0 0.475784 7.68648e-05 0 0.654344 0.308714 0 0.76898 0.587525 0 0.809458 0.809426 0 0.769125 0.95066 0 0.654527 1.00042 0 0.475801 0.951642 0 0.249778 0.808901 0 -1.77885e-05 0.588412 0 -0.249781 0.309256 0 -0.475745 -4.4572e-05 0 -0.654443 -0.308682 0 -0.769061 -0.587606 0 -0.809443 -0.809517 0 -0.769021 -0.950537 0 -0.65443 -1.00016 0 -0.475884 -0.951674 0 -0.250038 -0.809283 0 1.19454e-05 -0.58806 0 9.7606e-06 -0.808929 0 0.181657 -0.587472 0 0.345778 -0.308494 0 0.475518 0.000134393 0 0.558763 0.309191 0 0.588131 0.588102 0 0.55883 0.808532 0 0.475592 0.951349 0 0.345744 1.00023 0 0.181502 0.950531 0 -2.86046e-05 0.809311 0 -0.181535 0.58738 0 -0.345739 0.308553 0 -0.475579 -2.03221e-05 0 -0.55884 -0.309285 0 -0.588149 -0.588279 0 -0.558745 -0.808423 0 -0.47547 -0.950993 0 -0.345767 -1.00019 0 -0.181712 -0.950961 0 -9.7606e-06 -0.808948 0 5.821e-06 -0.95065 0 0.0953948 -0.808541 0 0.181616 -0.58735 0 0.249732 -0.309003 0 0.293371 8.49306e-06 0 0.308726 0.308622 0 0.293332 0.586716 0 0.249656 0.808711 0 0.181506 0.950628 0 0.0952795 0.999054 0 -4.04919e-05 0.951144 0 -0.0953592 0.808344 0 -0.181588 0.587421 0 -0.249752 0.309203 0 -0.293433 -9.4406e-05 0 -0.308771 -0.308876 0 -0.293281 -0.586655 0 -0.249533 -0.808323 0 -0.181463 -0.950529 0 -0.0953877 -0.999425 0 -5.821e-06 -0.950661 0 -4.54035e-06 -1.00063 0 5.94816e-05 -0.951492 0 0.000181987 -0.8093 0 0.000206581 -0.587966 0 0.000110474 -0.308727 0 4.47789e-06 -0.00015399 0 -2.35062e-05 0.308736 0 -4.4932e-07 0.588408 0 1.91318e-05 0.809566 0 7.70636e-06 0.951328 0 -3.52705e-05 1.00123 0 -0.000103031 0.951204 0 -0.000164252 0.80937 0 -0.00018254 0.588238 0 -0.000146084 0.308665 0 -6.76545e-05 -0.000148478 0 3.10657e-05 -0.308739 0 9.70313e-05 -0.588044 0 7.34753e-05 -0.80942 0 -1.60723e-06 -0.951586 0 4.54035e-06 -1.00062 0 -4.51339e-06 -0.9507 0 -0.0953416 -0.999457 0 -0.181393 -0.950508 0 -0.249497 -0.80831 0 -0.293322 -0.586718 0 -0.308866 -0.308986 0 -0.293511 -0.000149195 0 -0.24977 0.309263 0 -0.18155 0.587583 0 -0.0952974 0.808551 0 -2.35045e-06 0.951316 0 0.0952474 0.999112 0 0.181411 0.950569 0 0.249568 0.808623 0 0.293322 0.586692 0 0.308796 0.308676 0 0.293471 8.2709e-05 0 0.249816 -0.308973 0 0.181658 -0.587422 0 0.0953962 -0.808688 0 4.51339e-06 -0.950691 0 1.3045e-06 -0.808985 0 -0.181697 -0.951065 0 -0.345765 -1.00023 0 -0.475533 -0.951009 0 -0.558915 -0.80851 0 -0.588408 -0.588441 0 -0.559122 -0.309452 0 -0.475816 -0.00011875 0 -0.345875 0.308581 0 -0.181551 0.587545 0 3.599e-05 0.809539 0 0.181568 0.950697 0 0.345784 1.00028 0 0.475647 0.951331 0 0.558955 0.808527 0 0.588343 0.588163 0 0.559039 0.309334 0 0.4758 0.000300325 0 0.345973 -0.308435 0 0.181718 -0.587567 0 -1.3045e-06 -0.808988 0 3.30972e-06 -0.588061 0 -0.249982 -0.80927 0 -0.47575 -0.951506 0 -0.654277 -0.999892 0 -0.768924 -0.950309 0 -0.809432 -0.809398 0 -0.769124 -0.58761 0 -0.654538 -0.308769 0 -0.475806 -0.000117289 0 -0.249763 0.309267 0 5.02272e-05 0.588477 0 0.249815 0.808912 0 0.475762 0.951533 0 0.654422 1.00019 0 0.769002 0.950375 0 0.809381 0.80919 0 0.769009 0.58746 0 0.654462 0.308827 0 0.475884 0.000230997 0 0.249976 -0.309183 0 -3.30972e-06 -0.588068 0 -1.51027e-07 -0.308726 0 -0.293758 -0.587423 0 -0.559095 -0.808911 0 -0.768886 -0.950349 0 -0.903564 -0.998763 0 -0.951118 -0.951056 0 -0.903738 -0.808434 0 -0.769103 -0.587618 0 -0.559104 -0.309437 0 -0.293511 -7.15533e-05 0 3.31781e-05 0.308945 0 0.29355 0.587103 0 0.559087 0.808913 0 0.769044 0.950599 0 0.903674 0.998875 0 0.95109 0.950945 0 0.903607 0.808275 0 0.76898 0.587554 0 0.559161 0.309509 0 0.29375 0.000250543 0 1.51027e-07 -0.308726 0 -2.78076e-06 -2.78076e-06 0 -0.309177 -0.309267 0 -0.588478 -0.588576 0 -0.809292 -0.809329 0 -0.951009 -0.950958 0 -1.00102 -1.00093 0 -0.951139 -0.951104 0 -0.809443 -0.8095 0 -0.588446 -0.588545 0 -0.30894 -0.309009 0 -9.46174e-13 5.45814e-13 0 0.30894 0.309009 0 0.588446 0.588545 0 0.809443 0.8095 0 0.951139 0.951104 0 1.00102 1.00093 0 0.951009 0.950958 0 0.809292 0.809329 0 0.588478 0.588576 0 0.309177 0.309267 0 2.78076e-06 2.78076e-06 0 -1.51027e-07 0.308726 0 -0.29375 -0.000250543 0 -0.559161 -0.309509 0 -0.76898 -0.587554 0 -0.903607 -0.808275 0 -0.95109 -0.950945 0 -0.903674 -0.998875 0 -0.769044 -0.950599 0 -0.559087 -0.808913 0 -0.29355 -0.587103 0 -3.31781e-05 -0.308945 0 0.293511 7.15533e-05 0 0.559104 0.309437 0 0.769103 0.587618 0 0.903738 0.808434 0 0.951118 0.951056 0 0.903564 0.998763 0 0.768886 0.950349 0 0.559095 0.808911 0 0.293758 0.587423 0 1.51027e-07 0.308726 0 3.30972e-06 0.588068 0 -0.249976 0.309183 0 -0.475884 -0.000230997 0 -0.654462 -0.308827 0 -0.769009 -0.58746 0 -0.809381 -0.80919 0 -0.769002 -0.950375 0 -0.654422 -1.00019 0 -0.475762 -0.951533 0 -0.249815 -0.808912 0 -5.02272e-05 -0.588477 0 0.249763 -0.309267 0 0.475806 0.000117289 0 0.654538 0.308769 0 0.769124 0.58761 0 0.809432 0.809398 0 0.768924 0.950309 0 0.654277 0.999892 0 0.47575 0.951506 0 0.249982 0.80927 0 -3.30972e-06 0.588061 0 1.3045e-06 0.808988 0 -0.181718 0.587567 0 -0.345973 0.308435 0 -0.4758 -0.000300325 0 -0.559039 -0.309334 0 -0.588343 -0.588163 0 -0.558955 -0.808527 0 -0.475647 -0.951331 0 -0.345784 -1.00028 0 -0.181568 -0.950697 0 -3.599e-05 -0.809539 0 0.181551 -0.587545 0 0.345875 -0.308581 0 0.475816 0.00011875 0 0.559122 0.309452 0 0.588408 0.588441 0 0.558915 0.80851 0 0.475533 0.951009 0 0.345765 1.00023 0 0.181697 0.951065 0 -1.3045e-06 0.808985 0 -4.51339e-06 0.950691 0 -0.0953962 0.808688 0 -0.181658 0.587422 0 -0.249816 0.308973 0 -0.293471 -8.2709e-05 0 -0.308796 -0.308676 0 -0.293322 -0.586692 0 -0.249568 -0.808623 0 -0.181411 -0.950569 0 -0.0952474 -0.999112 0 2.35045e-06 -0.951316 0 0.0952974 -0.808551 0 0.18155 -0.587583 0 0.24977 -0.309263 0 0.293511 0.000149195 0 0.308866 0.308986 0 0.293322 0.586718 0 0.249497 0.80831 0 0.181393 0.950508 0 0.0953416 0.999457 0 4.51339e-06 0.9507 0 -4.54035e-06 1.00062 0 1.60723e-06 0.951586 0 -7.34753e-05 0.80942 0 -9.70313e-05 0.588044 0 -3.10657e-05 0.308739 0 6.76545e-05 0.000148478 0 0.000146084 -0.308665 0 0.00018254 -0.588238 0 0.000164252 -0.80937 0 0.000103031 -0.951204 0 3.52705e-05 -1.00123 0 -7.70635e-06 -0.951328 0 -1.91318e-05 -0.809566 0 4.49314e-07 -0.588408 0 2.35062e-05 -0.308736 0 -4.47789e-06 0.00015399 0 -0.000110474 0.308727 0 -0.000206581 0.587966 0 -0.000181987 0.8093 0 -5.94816e-05 0.951492 0 4.54035e-06 1.00063 0 5.821e-06 0.950661 0 0.0953877 0.999425 0 0.181463 0.950529 0 0.249533 0.808323 0 0.293281 0.586655 0 0.308771 0.308876 0 0.293433 9.4406e-05 0 0.249752 -0.309203 0 0.181588 -0.587421 0 0.0953592 -0.808344 0 4.04919e-05 -0.951144 0 -0.0952795 -0.999054 0 -0.181506 -0.950628 0 -0.249656 -0.808711 0 -0.293332 -0.586716 0 -0.308726 -0.308622 0 -0.293371 -8.49306e-06 0 -0.249732 0.309003 0 -0.181616 0.58735 0 -0.0953948 0.808541 0 -5.821e-06 0.95065 0 9.7606e-06 0.808948 0 0.181712 0.950961 0 0.345767 1.00019 0 0.47547 0.950993 0 0.558745 0.808423 0 0.588149 0.588279 0 0.55884 0.309285 0 0.475579 2.03221e-05 0 0.345739 -0.308553 0 0.181535 -0.58738 0 2.86046e-05 -0.809311 0 -0.181502 -0.950531 0 -0.345744 -1.00023 0 -0.475592 -0.951349 0 -0.55883 -0.808532 0 -0.588131 -0.588102 0 -0.558763 -0.309191 0 -0.475518 -0.000134393 0 -0.345778 0.308494 0 -0.181657 0.587472 0 -9.7606e-06 0.808929 0 -1.19454e-05 0.58806 0 0.250038 0.809283 0 0.475884 0.951674 0 0.65443 1.00016 0 0.769021 0.950537 0 0.809443 0.809517 0 0.769061 0.587606 0 0.654443 0.308682 0 0.475745 4.4572e-05 0 0.249781 -0.309256 0 1.77885e-05 -0.588412 0 -0.249778 -0.808901 0 -0.475801 -0.951642 0 -0.654527 -1.00042 0 -0.769125 -0.95066 0 -0.809458 -0.809426 0 -0.76898 -0.587525 0 -0.654344 -0.308714 0 -0.475784 -7.68648e-05 0 -0.249966 0.309251 0 1.19454e-05 0.588084 0 -1.09436e-05 0.308811 0 0.293803 0.587514 0 0.559324 0.809215 0 0.76926 0.950829 0 0.903971 0.999268 0 0.951472 0.951447 0 0.903985 0.808607 0 0.769239 0.587566 0 0.559181 0.309262 0 0.293575 -0.000109937 0 1.18057e-05 -0.309101 0 -0.293576 -0.587274 0 -0.559229 -0.809156 0 -0.769322 -0.950968 0 -0.904067 -0.999364 0 -0.951506 -0.951428 0 -0.903915 -0.808551 0 -0.76913 -0.587535 0 -0.559207 -0.309269 0 -0.293766 3.44557e-05 0 1.09436e-05 0.308833 0 0.000128696 0.000257392 0 0.308822 0.308811 0 0.588072 0.58806 0 0.808939 0.808948 0 0.950655 0.950661 0 1.00063 1.00062 0 0.950696 0.950691 0 0.808987 0.808988 0 0.588065 0.588068 0 0.308726 0.308726 0 1.66533e-16 -2.78076e-06 0 -0.308726 -0.308726 0 -0.588065 -0.588061 0 -0.808987 -0.808985 0 -0.950696 -0.9507 0 -1.00063 -1.00063 0 -0.950655 -0.95065 0 -0.808939 -0.808929 0 -0.588072 -0.588084 0 -0.308822 -0.308833 0 -0.000128696 8.87681e-17 0 </DataArray> 
<DataArray type="Float32" Name="stress" format="ascii" NumberOfComponents="9"> 
0.767529 0.383993 0 0.383993 -0.76905 0 0 0 0 0.733013 0.366787 0 0.366787 -0.728823 0 0 0 0 0.626542 0.313097 0 0.313097 -0.61739 0 0 0 0 0.449382 0.22617 0 0.22617 -0.449203 0 0 0 0 0.244056 0.121756 0 0.121756 -0.229452 0 0 0 0 0.00298673 0.0022116 0 0.0022116 0.00678156 0 0 0 0 -0.23838 -0.117674 0 -0.117674 0.242454 0 0 0 0 -0.444669 -0.222888 0 -0.222888 0.460363 0 0 0 0 -0.623471 -0.310718 0 -0.310718 0.625261 0 0 0 0 -0.7315 -0.365318 0 -0.365318 0.732975 0 0 0 0 -0.766615 -0.383983 0 -0.383983 0.770965 0 0 0 0 -0.733354 -0.366631 0 -0.366631 0.728647 0 0 0 0 -0.626985 -0.313215 0 -0.313215 0.617061 0 0 0 0 -0.449456 -0.226334 0 -0.226334 0.449192 0 0 0 0 -0.243936 -0.12175 0 -0.12175 0.229492 0 0 0 0 -0.00278166 -0.00206557 0 -0.00206557 -0.00667803 0 0 0 0 0.238634 0.117795 0 0.117795 -0.242103 0 0 0 0 0.444717 0.222857 0 0.222857 -0.460088 0 0 0 0 0.622877 0.310456 0 0.310456 -0.625942 0 0 0 0 0.730927 0.364941 0 0.364941 -0.73369 0 0 0 0 0.768442 0.383993 0 0.383993 -0.76692 0 0 0 0 0.731318 0.364716 0 0.364716 -0.73212 0 0 0 0 0.640568 0.347973 0 0.347973 -0.824878 0 0 0 0 0.487976 0.29569 0 0.29569 -0.837385 0 0 0 0 0.279858 0.213175 0 0.213175 -0.771007 0 0 0 0 0.0591348 0.113186 0 0.113186 -0.622227 0 0 0 0 -0.179224 -0.00107966 0 -0.00107966 -0.418885 0 0 0 0 -0.399732 -0.11451 0 -0.11451 -0.173436 0 0 0 0 -0.570075 -0.213952 0 -0.213952 0.0942627 0 0 0 0 -0.699847 -0.297602 0 -0.297602 0.345145 0 0 0 0 -0.75167 -0.347959 0 -0.347959 0.566345 0 0 0 0 -0.728766 -0.365136 0 -0.365136 0.733664 0 0 0 0 -0.640857 -0.348068 0 -0.348068 0.824568 0 0 0 0 -0.488865 -0.295717 0 -0.295717 0.837053 0 0 0 0 -0.279916 -0.213244 0 -0.213244 0.771149 0 0 0 0 -0.0587836 -0.113213 0 -0.113213 0.622297 0 0 0 0 0.179534 0.00118844 0 0.00118844 0.418825 0 0 0 0 0.399899 0.114681 0 0.114681 0.173659 0 0 0 0 0.569902 0.21392 0 0.21392 -0.0939056 0 0 0 0 0.698986 0.297201 0 0.297201 -0.345542 0 0 0 0 0.751333 0.347931 0 0.347931 -0.567056 0 0 0 0 0.731413 0.366563 0 0.366563 -0.731726 0 0 0 0 0.621718 0.309972 0 0.309972 -0.624587 0 0 0 0 0.487234 0.296884 0 0.296884 -0.836598 0 0 0 0 0.305797 0.252251 0 0.252251 -0.967357 0 0 0 0 0.088009 0.183089 0 0.183089 -1.00583 0 0 0 0 -0.125823 0.0979695 0 0.0979695 -0.940131 0 0 0 0 -0.337587 0.000461305 0 0.000461305 -0.788367 0 0 0 0 -0.515658 -0.0956446 0 -0.0956446 -0.557549 0 0 0 0 -0.634201 -0.180318 0 -0.180318 -0.268196 0 0 0 0 -0.703717 -0.252723 0 -0.252723 0.0409402 0 0 0 0 -0.696094 -0.295254 0 -0.295254 0.349943 0 0 0 0 -0.619434 -0.310715 0 -0.310715 0.625658 0 0 0 0 -0.487514 -0.297036 0 -0.297036 0.836178 0 0 0 0 -0.306596 -0.252154 0 -0.252154 0.967127 0 0 0 0 -0.0880882 -0.183158 0 -0.183158 1.00606 0 0 0 0 0.126088 -0.098094 0 -0.098094 0.940168 0 0 0 0 0.337891 -0.00035844 0 -0.00035844 0.788203 0 0 0 0 0.515911 0.0959337 0 0.0959337 0.557684 0 0 0 0 0.634056 0.180328 0 0.180328 0.268544 0 0 0 0 0.702761 0.252164 0 0.252164 -0.0411592 0 0 0 0 0.695748 0.295264 0 0.295264 -0.350465 0 0 0 0 0.622019 0.31271 0 0.31271 -0.624659 0 0 0 0 0.454548 0.224572 0 0.224572 -0.447068 0 0 0 0 0.287976 0.215619 0 0.215619 -0.762304 0 0 0 0 0.0935813 0.181968 0 0.181968 -1.00323 0 0 0 0 -0.114675 0.132015 0 0.132015 -1.14734 0 0 0 0 -0.302517 0.0695853 0 0.0695853 -1.17519 0 0 0 0 -0.468301 -0.00174349 0 -0.00174349 -1.09302 0 0 0 0 -0.587304 -0.0709098 0 -0.0709098 -0.901443 0 0 0 0 -0.642668 -0.13201 0 -0.13201 -0.619434 0 0 0 0 -0.644689 -0.185256 0 -0.185256 -0.281429 0 0 0 0 -0.577351 -0.214756 0 -0.214756 0.0874694 0 0 0 0 -0.452992 -0.225847 0 -0.225847 0.44806 0 0 0 0 -0.288197 -0.215763 0 -0.215763 0.761844 0 0 0 0 -0.09408 -0.181714 0 -0.181714 1.00308 0 0 0 0 0.114587 -0.132129 0 -0.132129 1.14761 0 0 0 0 0.302614 -0.0698353 0 -0.0698353 1.17522 0 0 0 0 0.468545 0.00184615 0 0.00184615 1.09283 0 0 0 0 0.587635 0.0713196 0 0.0713196 0.901467 0 0 0 0 0.642617 0.132071 0 0.132071 0.619629 0 0 0 0 0.643831 0.18459 0 0.18459 0.281303 0 0 0 0 0.577048 0.214766 0 0.214766 -0.0875531 0 0 0 0 0.455236 0.228146 0 0.228146 -0.44682 0 0 0 0 0.235678 0.116691 0 0.116691 -0.241426 0 0 0 0 0.0549641 0.113827 0 0.113827 -0.62519 0 0 0 0 -0.131252 0.0953038 0 0.0953038 -0.947942 0 0 0 0 -0.30711 0.0700518 0 0.0700518 -1.17813 0 0 0 0 -0.447985 0.0368425 0 0.0368425 -1.29107 0 0 0 0 -0.549156 -0.00112141 0 -0.00112141 -1.2812 0 0 0 0 -0.59544 -0.0366278 0 -0.0366278 -1.14327 0 0 0 0 -0.580731 -0.0684626 0 -0.0684626 -0.8932 0 0 0 0 -0.514272 -0.0978419 0 -0.0978419 -0.558059 0 0 0 0 -0.393894 -0.112133 0 -0.112133 -0.165839 0 0 0 0 -0.234938 -0.118606 0 -0.118606 0.242156 0 0 0 0 -0.0550452 -0.113963 0 -0.113963 0.6248 0 0 0 0 0.131113 -0.094867 0 -0.094867 0.947899 0 0 0 0 0.307032 -0.0701903 0 -0.0701903 1.17839 0 0 0 0 0.447924 -0.037211 0 -0.037211 1.2911 0 0 0 0 0.549307 0.00119401 0 0.00119401 1.28104 0 0 0 0 0.595788 0.0371103 0 0.0371103 1.14321 0 0 0 0 0.580798 0.0685798 0 0.0685798 0.89324 0 0 0 0 0.513696 0.0971649 0 0.0971649 0.558021 0 0 0 0 0.393666 0.112192 0 0.112192 0.166074 0 0 0 0 0.236338 0.121099 0 0.121099 -0.241067 0 0 0 0 -0.000136186 -0.00234854 0 -0.00234854 -0.000160349 0 0 0 0 -0.177575 0.00128972 0 0.00128972 -0.415323 0 0 0 0 -0.338325 -0.000232941 0 -0.000232941 -0.790222 0 0 0 0 -0.465954 0.00168558 0 0.00168558 -1.0868 0 0 0 0 -0.547782 0.000895827 0 0.000895827 -1.27717 0 0 0 0 -0.576377 -8.83476e-05 0 -8.83476e-05 -1.34429 0 0 0 0 -0.547362 0.0014185 0 0.0014185 -1.27723 0 0 0 0 -0.465724 0.00184784 0 0.00184784 -1.08693 0 0 0 0 -0.338601 -0.000909376 0 -0.000909376 -0.790106 0 0 0 0 -0.177795 0.00128574 0 0.00128574 -0.414633 0 0 0 0 -7.54699e-05 -5.63326e-05 0 -5.63326e-05 0.00030172 0 0 0 0 0.177648 -0.00139732 0 -0.00139732 0.415089 0 0 0 0 0.338539 0.000835449 0 0.000835449 0.790296 0 0 0 0 0.465882 -0.00182047 0 -0.00182047 1.08697 0 0 0 0 0.547577 -0.00134653 0 -0.00134653 1.27719 0 0 0 0 0.57642 0.000111636 0 0.000111636 1.34421 0 0 0 0 0.547666 -0.000924671 0 -0.000924671 1.27713 0 0 0 0 0.465884 -0.00168996 0 -0.00168996 1.08682 0 0 0 0 0.338378 0.0002916 0 0.0002916 0.790121 0 0 0 0 0.177656 -0.00118166 0 -0.00118166 0.414998 0 0 0 0 0.000365052 0.00252627 0 0.00252627 9.77356e-05 0 0 0 0 -0.236182 -0.121146 0 -0.121146 0.241085 0 0 0 0 -0.39372 -0.11218 0 -0.11218 -0.166532 0 0 0 0 -0.513915 -0.0972326 0 -0.0972326 -0.558535 0 0 0 0 -0.581257 -0.0688307 0 -0.0688307 -0.893777 0 0 0 0 -0.596304 -0.0374488 0 -0.0374488 -1.14379 0 0 0 0 -0.549631 -0.00149016 0 -0.00149016 -1.28163 0 0 0 0 -0.448031 0.0369884 0 0.0369884 -1.29173 0 0 0 0 -0.307069 0.0699977 0 0.0699977 -1.17901 0 0 0 0 -0.131128 0.0947044 0 0.0947044 -0.948281 0 0 0 0 0.0550879 0.113864 0 0.113864 -0.624716 0 0 0 0 0.234962 0.118549 0 0.118549 -0.24168 0 0 0 0 0.39389 0.112113 0 0.112113 0.166465 0 0 0 0 0.514419 0.0979298 0 0.0979298 0.558709 0 0 0 0 0.581186 0.068721 0 0.068721 0.893833 0 0 0 0 0.59598 0.0369729 0 0.0369729 1.14379 0 0 0 0 0.549552 0.00145861 0 0.00145861 1.28164 0 0 0 0 0.448228 -0.0365482 0 -0.0365482 1.29161 0 0 0 0 0.307267 -0.0698254 0 -0.0698254 1.17877 0 0 0 0 0.131252 -0.0952006 0 -0.0952006 0.948328 0 0 0 0 -0.0550866 -0.113742 0 -0.113742 0.625131 0 0 0 0 -0.235639 -0.116405 0 -0.116405 0.241285 0 0 0 0 -0.455203 -0.228388 0 -0.228388 0.446899 0 0 0 0 -0.57703 -0.214737 0 -0.214737 0.0875785 0 0 0 0 -0.643896 -0.1845 0 -0.1845 -0.281178 0 0 0 0 -0.642863 -0.132103 0 -0.132103 -0.619422 0 0 0 0 -0.587901 -0.0714125 0 -0.0714125 -0.901202 0 0 0 0 -0.468661 -0.00191247 0 -0.00191247 -1.09261 0 0 0 0 -0.302578 0.0698126 0 0.0698126 -1.17525 0 0 0 0 -0.114455 0.132139 0 0.132139 -1.14792 0 0 0 0 0.0943431 0.181782 0 0.181782 -1.00344 0 0 0 0 0.288486 0.215851 0 0.215851 -0.762072 0 0 0 0 0.453091 0.225867 0 0.225867 -0.448159 0 0 0 0 0.577251 0.214695 0 0.214695 -0.0875052 0 0 0 0 0.644631 0.185204 0 0.185204 0.281431 0 0 0 0 0.642812 0.13203 0 0.13203 0.619378 0 0 0 0 0.587497 0.0709653 0 0.0709653 0.901193 0 0 0 0 0.468451 0.00182829 0 0.00182829 1.0927 0 0 0 0 0.302627 -0.0694765 0 -0.0694765 1.17512 0 0 0 0 0.114655 -0.13197 0 -0.13197 1.14759 0 0 0 0 -0.0938908 -0.182095 0 -0.182095 1.00355 0 0 0 0 -0.288305 -0.215719 0 -0.215719 0.762539 0 0 0 0 -0.454513 -0.224309 0 -0.224309 0.447157 0 0 0 0 -0.621771 -0.312901 0 -0.312901 0.624961 0 0 0 0 -0.69504 -0.295036 0 -0.295036 0.351435 0 0 0 0 -0.701937 -0.251699 0 -0.251699 0.0425986 0 0 0 0 -0.633412 -0.179848 0 -0.179848 -0.266842 0 0 0 0 -0.515401 -0.0954668 0 -0.0954668 -0.555859 0 0 0 0 -0.337475 0.000802142 0 0.000802142 -0.786529 0 0 0 0 -0.125801 0.09849 0 0.09849 -0.939023 0 0 0 0 0.0882681 0.183512 0 0.183512 -1.00562 0 0 0 0 0.306758 0.252489 0 0.252489 -0.967304 0 0 0 0 0.487488 0.297255 0 0.297255 -0.836867 0 0 0 0 0.619005 0.310706 0 0.310706 -0.62675 0 0 0 0 0.695322 0.295013 0 0.295013 -0.351228 0 0 0 0 0.702863 0.252328 0 0.252328 -0.0422784 0 0 0 0 0.63341 0.179819 0 0.179819 0.266716 0 0 0 0 0.514966 0.0950961 0 0.0950961 0.555843 0 0 0 0 0.337157 -0.00092939 0 -0.00092939 0.786692 0 0 0 0 0.125695 -0.0982915 0 -0.0982915 0.938906 0 0 0 0 -0.0880823 -0.183361 0 -0.183361 1.00526 0 0 0 0 -0.306018 -0.252582 0 -0.252582 0.967486 0 0 0 0 -0.487163 -0.297122 0 -0.297122 0.837361 0 0 0 0 -0.621085 -0.309909 0 -0.309909 0.625267 0 0 0 0 -0.731469 -0.366726 0 -0.366726 0.73213 0 0 0 0 -0.75094 -0.347927 0 -0.347927 0.566758 0 0 0 0 -0.698515 -0.2971 0 -0.2971 0.345081 0 0 0 0 -0.569804 -0.213906 0 -0.213906 0.0934297 0 0 0 0 -0.400119 -0.114781 0 -0.114781 -0.17405 0 0 0 0 -0.179997 -0.00140832 0 -0.00140832 -0.419192 0 0 0 0 0.0581489 0.112916 0 0.112916 -0.622815 0 0 0 0 0.279288 0.212982 0 0.212982 -0.771852 0 0 0 0 0.488438 0.295595 0 0.295595 -0.837822 0 0 0 0 0.640521 0.348027 0 0.348027 -0.825304 0 0 0 0 0.728389 0.365109 0 0.365109 -0.7342 0 0 0 0 0.751296 0.347943 0 0.347943 -0.566428 0 0 0 0 0.699571 0.297601 0 0.297601 -0.344727 0 0 0 0 0.569869 0.213926 0 0.213926 -0.0936288 0 0 0 0 0.399701 0.114524 0 0.114524 0.174016 0 0 0 0 0.179602 0.00125115 0 0.00125115 0.419394 0 0 0 0 -0.058397 -0.112875 0 -0.112875 0.622717 0 0 0 0 -0.279128 -0.212867 0 -0.212867 0.771511 0 0 0 0 -0.487478 -0.295467 0 -0.295467 0.838084 0 0 0 0 -0.640122 -0.347913 0 -0.347913 0.825782 0 0 0 0 -0.73105 -0.365144 0 -0.365144 0.732339 0 0 0 0 -0.771495 -0.385146 0 -0.385146 0.766388 0 0 0 0 -0.733776 -0.366186 0 -0.366186 0.728755 0 0 0 0 -0.625591 -0.311838 0 -0.311838 0.619177 0 0 0 0 -0.447812 -0.224585 0 -0.224585 0.452656 0 0 0 0 -0.241851 -0.119799 0 -0.119799 0.234788 0 0 0 0 -0.000212769 -8.42332e-05 0 -8.42332e-05 0.000107147 0 0 0 0 0.241495 0.119683 0 0.119683 -0.234855 0 0 0 0 0.447934 0.224655 0 0.224655 -0.452933 0 0 0 0 0.626667 0.312169 0 0.312169 -0.618847 0 0 0 0 0.734183 0.366256 0 0.366256 -0.728331 0 0 0 0 0.76846 0.384279 0 0.384279 -0.76847 0 0 0 0 0.734183 0.366256 0 0.366256 -0.728331 0 0 0 0 0.626667 0.312169 0 0.312169 -0.618847 0 0 0 0 0.447934 0.224655 0 0.224655 -0.452933 0 0 0 0 0.241495 0.119683 0 0.119683 -0.234855 0 0 0 0 -0.000212769 -8.42332e-05 0 -8.42332e-05 0.000107147 0 0 0 0 -0.241851 -0.119799 0 -0.119799 0.234788 0 0 0 0 -0.447812 -0.224585 0 -0.224585 0.452656 0 0 0 0 -0.625591 -0.311838 0 -0.311838 0.619177 0 0 0 0 -0.733776 -0.366186 0 -0.366186 0.728755 0 0 0 0 -0.771495 -0.385146 0 -0.385146 0.766388 0 0 0 0 -0.73105 -0.365144 0 -0.365144 0.732339 0 0 0 0 -0.640122 -0.347913 0 -0.347913 0.825782 0 0 0 0 -0.487478 -0.295467 0 -0.295467 0.838084 0 0 0 0 -0.279128 -0.212867 0 -0.212867 0.771511 0 0 0 0 -0.058397 -0.112875 0 -0.112875 0.622717 0 0 0 0 0.179602 0.00125115 0 0.00125115 0.419394 0 0 0 0 0.399701 0.114524 0 0.114524 0.174016 0 0 0 0 0.569869 0.213926 0 0.213926 -0.0936288 0 0 0 0 0.699571 0.297601 0 0.297601 -0.344727 0 0 0 0 0.751296 0.347943 0 0.347943 -0.566428 0 0 0 0 0.728389 0.365109 0 0.365109 -0.7342 0 0 0 0 0.640521 0.348027 0 0.348027 -0.825304 0 0 0 0 0.488438 0.295595 0 0.295595 -0.837822 0 0 0 0 0.279288 0.212982 0 0.212982 -0.771852 0 0 0 0 0.0581489 0.112916 0 0.112916 -0.622815 0 0 0 0 -0.179997 -0.00140832 0 -0.00140832 -0.419192 0 0 0 0 -0.400119 -0.114781 0 -0.114781 -0.17405 0 0 0 0 -0.569804 -0.213906 0 -0.213906 0.0934297 0 0 0 0 -0.698515 -0.2971 0 -0.2971 0.345081 0 0 0 0 -0.75094 -0.347927 0 -0.347927 0.566758 0 0 0 0 -0.731469 -0.366726 0 -0.366726 0.73213 0 0 0 0 -0.621085 -0.309909 0 -0.309909 0.625267 0 0 0 0 -0.487163 -0.297122 0 -0.297122 0.837361 0 0 0 0 -0.306018 -0.252582 0 -0.252582 0.967486 0 0 0 0 -0.0880823 -0.183361 0 -0.183361 1.00526 0 0 0 0 0.125695 -0.0982915 0 -0.0982915 0.938906 0 0 0 0 0.337157 -0.00092939 0 -0.00092939 0.786692 0 0 0 0 0.514966 0.0950961 0 0.0950961 0.555843 0 0 0 0 0.63341 0.179819 0 0.179819 0.266716 0 0 0 0 0.702863 0.252328 0 0.252328 -0.0422784 0 0 0 0 0.695322 0.295013 0 0.295013 -0.351228 0 0 0 0 0.619005 0.310706 0 0.310706 -0.62675 0 0 0 0 0.487488 0.297255 0 0.297255 -0.836867 0 0 0 0 0.306758 0.252489 0 0.252489 -0.967304 0 0 0 0 0.0882681 0.183512 0 0.183512 -1.00562 0 0 0 0 -0.125801 0.09849 0 0.09849 -0.939023 0 0 0 0 -0.337475 0.000802142 0 0.000802142 -0.786529 0 0 0 0 -0.515401 -0.0954668 0 -0.0954668 -0.555859 0 0 0 0 -0.633412 -0.179848 0 -0.179848 -0.266842 0 0 0 0 -0.701937 -0.251699 0 -0.251699 0.0425986 0 0 0 0 -0.69504 -0.295036 0 -0.295036 0.351435 0 0 0 0 -0.621771 -0.312901 0 -0.312901 0.624961 0 0 0 0 -0.454513 -0.224309 0 -0.224309 0.447157 0 0 0 0 -0.288305 -0.215719 0 -0.215719 0.762539 0 0 0 0 -0.0938908 -0.182095 0 -0.182095 1.00355 0 0 0 0 0.114655 -0.13197 0 -0.13197 1.14759 0 0 0 0 0.302627 -0.0694765 0 -0.0694765 1.17512 0 0 0 0 0.468451 0.00182829 0 0.00182829 1.0927 0 0 0 0 0.587497 0.0709653 0 0.0709653 0.901193 0 0 0 0 0.642812 0.13203 0 0.13203 0.619378 0 0 0 0 0.644631 0.185204 0 0.185204 0.281431 0 0 0 0 0.577251 0.214695 0 0.214695 -0.0875052 0 0 0 0 0.453091 0.225867 0 0.225867 -0.448159 0 0 0 0 0.288486 0.215851 0 0.215851 -0.762072 0 0 0 0 0.0943431 0.181782 0 0.181782 -1.00344 0 0 0 0 -0.114455 0.132139 0 0.132139 -1.14792 0 0 0 0 -0.302578 0.0698126 0 0.0698126 -1.17525 0 0 0 0 -0.468661 -0.00191247 0 -0.00191247 -1.09261 0 0 0 0 -0.587901 -0.0714125 0 -0.0714125 -0.901202 0 0 0 0 -0.642863 -0.132103 0 -0.132103 -0.619422 0 0 0 0 -0.643896 -0.1845 0 -0.1845 -0.281178 0 0 0 0 -0.57703 -0.214737 0 -0.214737 0.0875785 0 0 0 0 -0.455203 -0.228388 0 -0.228388 0.446899 0 0 0 0 -0.235639 -0.116405 0 -0.116405 0.241285 0 0 0 0 -0.0550866 -0.113742 0 -0.113742 0.625131 0 0 0 0 0.131252 -0.0952006 0 -0.0952006 0.948328 0 0 0 0 0.307267 -0.0698254 0 -0.0698254 1.17877 0 0 0 0 0.448228 -0.0365482 0 -0.0365482 1.29161 0 0 0 0 0.549552 0.00145861 0 0.00145861 1.28164 0 0 0 0 0.59598 0.0369729 0 0.0369729 1.14379 0 0 0 0 0.581186 0.068721 0 0.068721 0.893833 0 0 0 0 0.514419 0.0979298 0 0.0979298 0.558709 0 0 0 0 0.39389 0.112113 0 0.112113 0.166465 0 0 0 0 0.234962 0.118549 0 0.118549 -0.24168 0 0 0 0 0.0550879 0.113864 0 0.113864 -0.624716 0 0 0 0 -0.131128 0.0947044 0 0.0947044 -0.948281 0 0 0 0 -0.307069 0.0699977 0 0.0699977 -1.17901 0 0 0 0 -0.448031 0.0369884 0 0.0369884 -1.29173 0 0 0 0 -0.549631 -0.00149016 0 -0.00149016 -1.28163 0 0 0 0 -0.596304 -0.0374488 0 -0.0374488 -1.14379 0 0 0 0 -0.581257 -0.0688307 0 -0.0688307 -0.893777 0 0 0 0 -0.513915 -0.0972326 0 -0.0972326 -0.558535 0 0 0 0 -0.39372 -0.11218 0 -0.11218 -0.166532 0 0 0 0 -0.236182 -0.121146 0 -0.121146 0.241085 0 0 0 0 0.000365052 0.00252627 0 0.00252627 9.77356e-05 0 0 0 0 0.177656 -0.00118166 0 -0.00118166 0.414998 0 0 0 0 0.338378 0.0002916 0 0.0002916 0.790121 0 0 0 0 0.465884 -0.00168996 0 -0.00168996 1.08682 0 0 0 0 0.547666 -0.000924671 0 -0.000924671 1.27713 0 0 0 0 0.57642 0.000111636 0 0.000111636 1.34421 0 0 0 0 0.547577 -0.00134653 0 -0.00134653 1.27719 0 0 0 0 0.465882 -0.00182047 0 -0.00182047 1.08697 0 0 0 0 0.338539 0.000835449 0 0.000835449 0.790296 0 0 0 0 0.177648 -0.00139732 0 -0.00139732 0.415089 0 0 0 0 -7.54699e-05 -5.63326e-05 0 -5.63326e-05 0.00030172 0 0 0 0 -0.177795 0.00128574 0 0.00128574 -0.414633 0 0 0 0 -0.338601 -0.000909376 0 -0.000909376 -0.790106 0 0 0 0 -0.465724 0.00184784 0 0.00184784 -1.08693 0 0 0 0 -0.547362 0.0014185 0 0.0014185 -1.27723 0 0 0 0 -0.576377 -8.83476e-05 0 -8.83476e-05 -1.34429 0 0 0 0 -0.547782 0.000895827 0 0.000895827 -1.27717 0 0 0 0 -0.465954 0.00168558 0 0.00168558 -1.0868 0 0 0 0 -0.338325 -0.000232941 0 -0.000232941 -0.790222 0 0 0 0 -0.177575 0.00128972 0 0.00128972 -0.415323 0 0 0 0 -0.000136186 -0.00234854 0 -0.00234854 -0.000160349 0 0 0 0 0.236338 0.121099 0 0.121099 -0.241067 0 0 0 0 0.393666 0.112192 0 0.112192 0.166074 0 0 0 0 0.513696 0.0971649 0 0.0971649 0.558021 0 0 0 0 0.580798 0.0685798 0 0.0685798 0.89324 0 0 0 0 0.595788 0.0371103 0 0.0371103 1.14321 0 0 0 0 0.549307 0.00119401 0 0.00119401 1.28104 0 0 0 0 0.447924 -0.037211 0 -0.037211 1.2911 0 0 0 0 0.307032 -0.0701903 0 -0.0701903 1.17839 0 0 0 0 0.131113 -0.094867 0 -0.094867 0.947899 0 0 0 0 -0.0550452 -0.113963 0 -0.113963 0.6248 0 0 0 0 -0.234938 -0.118606 0 -0.118606 0.242156 0 0 0 0 -0.393894 -0.112133 0 -0.112133 -0.165839 0 0 0 0 -0.514272 -0.0978419 0 -0.0978419 -0.558059 0 0 0 0 -0.580731 -0.0684626 0 -0.0684626 -0.8932 0 0 0 0 -0.59544 -0.0366278 0 -0.0366278 -1.14327 0 0 0 0 -0.549156 -0.00112141 0 -0.00112141 -1.2812 0 0 0 0 -0.447985 0.0368425 0 0.0368425 -1.29107 0 0 0 0 -0.30711 0.0700518 0 0.0700518 -1.17813 0 0 0 0 -0.131252 0.0953038 0 0.0953038 -0.947942 0 0 0 0 0.0549641 0.113827 0 0.113827 -0.62519 0 0 0 0 0.235678 0.116691 0 0.116691 -0.241426 0 0 0 0 0.455236 0.228146 0 0.228146 -0.44682 0 0 0 0 0.577048 0.214766 0 0.214766 -0.0875531 0 0 0 0 0.643831 0.18459 0 0.18459 0.281303 0 0 0 0 0.642617 0.132071 0 0.132071 0.619629 0 0 0 0 0.587635 0.0713196 0 0.0713196 0.901467 0 0 0 0 0.468545 0.00184615 0 0.00184615 1.09283 0 0 0 0 0.302614 -0.0698353 0 -0.0698353 1.17522 0 0 0 0 0.114587 -0.132129 0 -0.132129 1.14761 0 0 0 0 -0.09408 -0.181714 0 -0.181714 1.00308 0 0 0 0 -0.288197 -0.215763 0 -0.215763 0.761844 0 0 0 0 -0.452992 -0.225847 0 -0.225847 0.44806 0 0 0 0 -0.577351 -0.214756 0 -0.214756 0.0874694 0 0 0 0 -0.644689 -0.185256 0 -0.185256 -0.281429 0 0 0 0 -0.642668 -0.13201 0 -0.13201 -0.619434 0 0 0 0 -0.587304 -0.0709098 0 -0.0709098 -0.901443 0 0 0 0 -0.468301 -0.00174349 0 -0.00174349 -1.09302 0 0 0 0 -0.302517 0.0695853 0 0.0695853 -1.17519 0 0 0 0 -0.114675 0.132015 0 0.132015 -1.14734 0 0 0 0 0.0935813 0.181968 0 0.181968 -1.00323 0 0 0 0 0.287976 0.215619 0 0.215619 -0.762304 0 0 0 0 0.454548 0.224572 0 0.224572 -0.447068 0 0 0 0 0.622019 0.31271 0 0.31271 -0.624659 0 0 0 0 0.695748 0.295264 0 0.295264 -0.350465 0 0 0 0 0.702761 0.252164 0 0.252164 -0.0411592 0 0 0 0 0.634056 0.180328 0 0.180328 0.268544 0 0 0 0 0.515911 0.0959337 0 0.0959337 0.557684 0 0 0 0 0.337891 -0.00035844 0 -0.00035844 0.788203 0 0 0 0 0.126088 -0.098094 0 -0.098094 0.940168 0 0 0 0 -0.0880882 -0.183158 0 -0.183158 1.00606 0 0 0 0 -0.306596 -0.252154 0 -0.252154 0.967127 0 0 0 0 -0.487514 -0.297036 0 -0.297036 0.836178 0 0 0 0 -0.619434 -0.310715 0 -0.310715 0.625658 0 0 0 0 -0.696094 -0.295254 0 -0.295254 0.349943 0 0 0 0 -0.703717 -0.252723 0 -0.252723 0.0409402 0 0 0 0 -0.634201 -0.180318 0 -0.180318 -0.268196 0 0 0 0 -0.515658 -0.0956446 0 -0.0956446 -0.557549 0 0 0 0 -0.337587 0.000461305 0 0.000461305 -0.788367 0 0 0 0 -0.125823 0.0979695 0 0.0979695 -0.940131 0 0 0 0 0.088009 0.183089 0 0.183089 -1.00583 0 0 0 0 0.305797 0.252251 0 0.252251 -0.967357 0 0 0 0 0.487234 0.296884 0 0.296884 -0.836598 0 0 0 0 0.621718 0.309972 0 0.309972 -0.624587 0 0 0 0 0.731413 0.366563 0 0.366563 -0.731726 0 0 0 0 0.751333 0.347931 0 0.347931 -0.567056 0 0 0 0 0.698986 0.297201 0 0.297201 -0.345542 0 0 0 0 0.569902 0.21392 0 0.21392 -0.0939056 0 0 0 0 0.399899 0.114681 0 0.114681 0.173659 0 0 0 0 0.179534 0.00118844 0 0.00118844 0.418825 0 0 0 0 -0.0587836 -0.113213 0 -0.113213 0.622297 0 0 0 0 -0.279916 -0.213244 0 -0.213244 0.771149 0 0 0 0 -0.488865 -0.295717 0 -0.295717 0.837053 0 0 0 0 -0.640857 -0.348068 0 -0.348068 0.824568 0 0 0 0 -0.728766 -0.365136 0 -0.365136 0.733664 0 0 0 0 -0.75167 -0.347959 0 -0.347959 0.566345 0 0 0 0 -0