<?xml version="1.0"?> 
<VTKFile type="StructuredGrid" version="0.1"> 
<StructuredGrid WholeExtent="0 20 0 20 0 0"> 
<Piece Extent="0 20 0 20 0 0"> 
<PointData>
<DataArray type="Float32" Name="displacement" format="ascii" NumberOfComponents="3"> 
1.27068e-07 -1.27168e-17 0 0.309017 0.309017 0 0.587785 0.587785 0 0.809018 0.809018 0 0.951055 0.951055 0 1 1 0 0.951055 0.951055 0 0.809018 0.809018 0 0.587785 0.587785 0 0.309017 0.309017 0 1.17961e-16 1.51065e-12 0 -0.309017 -0.309017 0 -0.587785 -0.587785 0 -0.809018 -0.809018 0 -0.951055 -0.951055 0 -1 -1 0 -0.951055 -0.951055 0 -0.809018 -0.809018 0 -0.587785 -0.587785 0 -0.309017 -0.309017 0 -1.27068e-07 -2.54136e-07 0 6.05931e-09 -0.309017 0 0.293892 -4.45853e-08 0 0.559016 0.309016 0 0.76942 0.587785 0 0.904505 0.809014 0 0.951057 0.951057 0 0.904505 0.999997 0 0.76942 0.951055 0 0.559016 0.809016 0 0.293892 0.587784 0 -7.03673e-09 0.309017 0 -0.293892 3.65608e-08 0 -0.559016 -0.309016 0 -0.76942 -0.587785 0 -0.904505 -0.809014 0 -0.951057 -0.951057 0 -0.904505 -0.999997 0 -0.76942 -0.951055 0 -0.559016 -0.809016 0 -0.293892 -0.587783 0 -6.05931e-09 -0.309017 0 3.0572e-09 -0.587785 0 0.25 -0.309016 0 0.475529 1.44967e-08 0 0.654509 0.309018 0 0.76942 0.587785 0 0.809019 0.809019 0 0.76942 0.951056 0 0.654509 1 0 0.475529 0.951057 0 0.25 0.809016 0 1.67681e-08 0.587787 0 -0.25 0.309016 0 -0.475529 4.222e-08 0 -0.654509 -0.309018 0 -0.76942 -0.587785 0 -0.809019 -0.809019 0 -0.76942 -0.951056 0 -0.654509 -1 0 -0.475529 -0.951057 0 -0.25 -0.809016 0 -3.0572e-09 -0.587785 0 1.66054e-10 -0.809018 0 0.181635 -0.587785 0 0.345492 -0.309018 0 0.475529 1.16636e-08 0 0.559016 0.309016 0 0.587787 0.587787 0 0.559016 0.809016 0 0.475529 0.951057 0 0.345492 1 0 0.181635 0.951056 0 -2.03261e-09 0.809019 0 -0.181635 0.587785 0 -0.345492 0.309018 0 -0.475529 -7.0203e-09 0 -0.559016 -0.309016 0 -0.587787 -0.587787 0 -0.559016 -0.809016 0 -0.475529 -0.951057 0 -0.345492 -1 0 -0.181635 -0.951055 0 -1.66054e-10 -0.809018 0 -3.71185e-10 -0.951055 0 0.0954913 -0.809014 0 0.181635 -0.587785 0 0.25 -0.309016 0 0.293892 1.06588e-08 0 0.309017 0.309017 0 0.293892 0.587784 0 0.25 0.809016 0 0.181635 0.951056 0 0.0954913 0.999997 0 -6.93934e-09 0.951057 0 -0.0954913 0.809014 0 -0.181635 0.587785 0 -0.25 0.309016 0 -0.293892 -1.22025e-08 0 -0.309017 -0.309017 0 -0.293892 -0.587784 0 -0.25 -0.809016 0 -0.181635 -0.951056 0 -0.0954913 -0.999997 0 3.71184e-10 -0.951055 0 -1.12065e-10 -1 0 1.54931e-08 -0.951057 0 1.01036e-08 -0.809019 0 -1.05913e-08 -0.587787 0 1.43931e-09 -0.309017 0 1.26418e-09 4.53472e-09 0 -2.4224e-09 0.309017 0 -3.48993e-09 0.587787 0 -5.10157e-09 0.809019 0 -6.79347e-09 0.951057 0 -7.57686e-09 1 0 -3.5192e-09 0.951057 0 -7.18713e-09 0.809019 0 -8.64125e-09 0.587787 0 -6.09127e-09 0.309017 0 -3.71565e-09 -8.51812e-09 0 -1.41633e-10 -0.309017 0 3.15736e-09 -0.587787 0 7.91732e-09 -0.809019 0 1.44909e-08 -0.951057 0 1.12065e-10 -1 0 2.62947e-11 -0.951055 0 -0.0954913 -0.999997 0 -0.181635 -0.951056 0 -0.25 -0.809016 0 -0.293892 -0.587784 0 -0.309017 -0.309017 0 -0.293892 -4.2035e-10 0 -0.25 0.309016 0 -0.181635 0.587785 0 -0.0954913 0.809014 0 -7.46731e-09 0.951057 0 0.0954913 0.999997 0 0.181635 0.951056 0 0.25 0.809016 0 0.293892 0.587784 0 0.309017 0.309017 0 0.293892 -1.31331e-08 0 0.25 -0.309016 0 0.181635 -0.587785 0 0.0954913 -0.809014 0 -2.62946e-11 -0.951055 0 2.06979e-11 -0.809018 0 -0.181635 -0.951055 0 -0.345492 -1 0 -0.475529 -0.951057 0 -0.559016 -0.809016 0 -0.587787 -0.587787 0 -0.559016 -0.309016 0 -0.475529 -1.02317e-09 0 -0.345492 0.309018 0 -0.181635 0.587785 0 -5.00369e-09 0.809019 0 0.181635 0.951056 0 0.345492 1 0 0.475529 0.951057 0 0.559016 0.809016 0 0.587787 0.587787 0 0.559016 0.309016 0 0.475529 -6.48611e-09 0 0.345492 -0.309018 0 0.181635 -0.587785 0 -2.06978e-11 -0.809018 0 1.27894e-12 -0.587785 0 -0.25 -0.809016 0 -0.475529 -0.951057 0 -0.654509 -1 0 -0.76942 -0.951056 0 -0.809019 -0.809019 0 -0.76942 -0.587785 0 -0.654509 -0.309018 0 -0.475529 7.52788e-10 0 -0.25 0.309016 0 -3.18929e-09 0.587787 0 0.25 0.809016 0 0.475529 0.951057 0 0.654509 1 0 0.76942 0.951056 0 0.809019 0.809019 0 0.76942 0.587785 0 0.654509 0.309018 0 0.475529 6.68355e-08 0 0.25 -0.309016 0 -1.27874e-12 -0.587785 0 -2.3241e-12 -0.309017 0 -0.293892 -0.587784 0 -0.559016 -0.809016 0 -0.76942 -0.951056 0 -0.904506 -0.999997 0 -0.951057 -0.951057 0 -0.904506 -0.809014 0 -0.76942 -0.587785 0 -0.559016 -0.309016 0 -0.293892 1.17727e-09 0 -2.47831e-09 0.309017 0 0.293892 0.587784 0 0.559016 0.809016 0 0.76942 0.951056 0 0.904506 0.999997 0 0.951057 0.951057 0 0.904506 0.809014 0 0.76942 0.587785 0 0.559016 0.309016 0 0.293892 3.7597e-08 0 2.32434e-12 -0.309017 0 -1.51057e-12 -1.51068e-12 0 -0.309017 -0.309017 0 -0.587787 -0.587787 0 -0.809019 -0.809019 0 -0.951057 -0.951057 0 -1 -1 0 -0.951057 -0.951057 0 -0.809019 -0.809019 0 -0.587787 -0.587787 0 -0.309017 -0.309017 0 4.06282e-12 -2.34463e-12 0 0.309017 0.309017 0 0.587787 0.587787 0 0.809019 0.809019 0 0.951057 0.951057 0 1 1 0 0.951057 0.951057 0 0.809019 0.809019 0 0.587787 0.587787 0 0.309017 0.309017 0 1.51081e-12 1.51088e-12 0 -2.3241e-12 0.309017 0 -0.293892 -3.75978e-08 0 -0.559016 -0.309016 0 -0.76942 -0.587785 0 -0.904506 -0.809014 0 -0.951057 -0.951057 0 -0.904506 -0.999997 0 -0.76942 -0.951056 0 -0.559016 -0.809016 0 -0.293892 -0.587784 0 2.48543e-09 -0.309017 0 0.293892 -1.18269e-09 0 0.559016 0.309016 0 0.76942 0.587785 0 0.904506 0.809014 0 0.951057 0.951057 0 0.904506 0.999997 0 0.76942 0.951056 0 0.559016 0.809016 0 0.293892 0.587784 0 2.32434e-12 0.309017 0 1.27894e-12 0.587785 0 -0.25 0.309016 0 -0.475529 -6.6835e-08 0 -0.654509 -0.309018 0 -0.76942 -0.587785 0 -0.809019 -0.809019 0 -0.76942 -0.951056 0 -0.654509 -1 0 -0.475529 -0.951057 0 -0.25 -0.809016 0 3.19848e-09 -0.587787 0 0.25 -0.309016 0 0.475529 -7.59375e-10 0 0.654509 0.309018 0 0.76942 0.587785 0 0.809019 0.809019 0 0.76942 0.951056 0 0.654509 1 0 0.475529 0.951057 0 0.25 0.809016 0 -1.27874e-12 0.587785 0 2.06979e-11 0.809018 0 -0.181635 0.587785 0 -0.345492 0.309018 0 -0.475529 6.48614e-09 0 -0.559016 -0.309016 0 -0.587787 -0.587787 0 -0.559016 -0.809016 0 -0.475529 -0.951057 0 -0.345492 -1 0 -0.181635 -0.951056 0 5.0144e-09 -0.809019 0 0.181635 -0.587785 0 0.345492 -0.309018 0 0.475529 1.01377e-09 0 0.559016 0.309016 0 0.587787 0.587787 0 0.559016 0.809016 0 0.475529 0.951057 0 0.345492 1 0 0.181635 0.951055 0 -2.06978e-11 0.809018 0 2.62947e-11 0.951055 0 -0.0954913 0.809014 0 -0.181635 0.587785 0 -0.25 0.309016 0 -0.293892 1.31326e-08 0 -0.309017 -0.309017 0 -0.293892 -0.587784 0 -0.25 -0.809016 0 -0.181635 -0.951056 0 -0.0954913 -0.999997 0 7.49974e-09 -0.951057 0 0.0954913 -0.809014 0 0.181635 -0.587785 0 0.25 -0.309016 0 0.293892 4.05046e-10 0 0.309017 0.309017 0 0.293892 0.587784 0 0.25 0.809016 0 0.181635 0.951056 0 0.0954913 0.999997 0 -2.62946e-11 0.951055 0 -1.12065e-10 1 0 -1.44858e-08 0.951057 0 -7.91586e-09 0.809019 0 -3.15632e-09 0.587787 0 1.42121e-10 0.309017 0 3.71844e-09 8.51651e-09 0 6.10032e-09 -0.309017 0 8.6594e-09 -0.587787 0 7.21426e-09 -0.809019 0 3.55478e-09 -0.951057 0 7.60263e-09 -1 0 6.82736e-09 -0.951057 0 5.13929e-09 -0.809019 0 3.53121e-09 -0.587787 0 2.45809e-09 -0.309017 0 -1.23457e-09 -4.55181e-09 0 -1.41704e-09 0.309017 0 1.05981e-08 0.587787 0 -1.0104e-08 0.809019 0 -1.54919e-08 0.951057 0 1.12065e-10 1 0 -3.71185e-10 0.951055 0 0.0954913 0.999997 0 0.181635 0.951056 0 0.25 0.809016 0 0.293892 0.587784 0 0.309017 0.309017 0 0.293892 1.21947e-08 0 0.25 -0.309016 0 0.181635 -0.587785 0 0.0954913 -0.809014 0 6.96966e-09 -0.951057 0 -0.0954913 -0.999997 0 -0.181635 -0.951056 0 -0.25 -0.809016 0 -0.293892 -0.587784 0 -0.309017 -0.309017 0 -0.293892 -1.06666e-08 0 -0.25 0.309016 0 -0.181635 0.587785 0 -0.0954913 0.809014 0 3.71184e-10 0.951055 0 1.66054e-10 0.809018 0 0.181635 0.951055 0 0.345492 1 0 0.475529 0.951057 0 0.559016 0.809016 0 0.587787 0.587787 0 0.559016 0.309016 0 0.475529 7.01308e-09 0 0.345492 -0.309018 0 0.181635 -0.587785 0 2.06637e-09 -0.809019 0 -0.181635 -0.951056 0 -0.345492 -1 0 -0.475529 -0.951057 0 -0.559016 -0.809016 0 -0.587787 -0.587787 0 -0.559016 -0.309016 0 -0.475529 -1.16625e-08 0 -0.345492 0.309018 0 -0.181635 0.587785 0 -1.66054e-10 0.809018 0 3.0572e-09 0.587785 0 0.25 0.809016 0 0.475529 0.951057 0 0.654509 1 0 0.76942 0.951056 0 0.809019 0.809019 0 0.76942 0.587785 0 0.654509 0.309018 0 0.475529 -4.22298e-08 0 0.25 -0.309016 0 -1.67457e-08 -0.587787 0 -0.25 -0.809016 0 -0.475529 -0.951057 0 -0.654509 -1 0 -0.76942 -0.951056 0 -0.809019 -0.809019 0 -0.76942 -0.587785 0 -0.654509 -0.309018 0 -0.475529 -1.44944e-08 0 -0.25 0.309016 0 -3.0572e-09 0.587785 0 6.05931e-09 0.309017 0 0.293892 0.587783 0 0.559016 0.809016 0 0.76942 0.951055 0 0.904505 0.999997 0 0.951057 0.951057 0 0.904505 0.809014 0 0.76942 0.587785 0 0.559016 0.309016 0 0.293892 -3.65653e-08 0 7.0487e-09 -0.309017 0 -0.293892 -0.587784 0 -0.559016 -0.809016 0 -0.76942 -0.951055 0 -0.904505 -0.999997 0 -0.951057 -0.951057 0 -0.904505 -0.809014 0 -0.76942 -0.587785 0 -0.559016 -0.309016 0 -0.293892 4.45848e-08 0 -6.05931e-09 0.309017 0 1.27068e-07 2.54136e-07 0 0.309017 0.309017 0 0.587785 0.587785 0 0.809018 0.809018 0 0.951055 0.951055 0 1 1 0 0.951055 0.951055 0 0.809018 0.809018 0 0.587785 0.587785 0 0.309017 0.309017 0 2.77556e-17 -1.51094e-12 0 -0.309017 -0.309017 0 -0.587785 -0.587785 0 -0.809018 -0.809018 0 -0.951055 -0.951055 0 -1 -1 0 -0.951055 -0.951055 0 -0.809018 -0.809018 0 -0.587785 -0.587785 0 -0.309017 -0.309017 0 -1.27068e-07 -8.87662e-18 0 </DataArray> 
<DataArray type="Float32" Name="stress" format="ascii" NumberOfComponents="9"> 
0.769224 0.384613 0 0.384613 -0.76923 0 0 0 0 0.731615 0.365805 0 0.365805 -0.731542 0 0 0 0 0.622295 0.311162 0 0.311162 -0.622286 0 0 0 0 0.452241 0.226112 0 0.226112 -0.452037 0 0 0 0 0.237707 0.118868 0 0.118868 -0.23763 0 0 0 0 4.07972e-05 2.73699e-05 0 2.73699e-05 9.51815e-05 0 0 0 0 -0.23763 -0.118816 0 -0.118816 0.237811 0 0 0 0 -0.452175 -0.226068 0 -0.226068 0.452191 0 0 0 0 -0.622247 -0.31113 0 -0.31113 0.622398 0 0 0 0 -0.731589 -0.365788 0 -0.365788 0.731601 0 0 0 0 -0.769221 -0.384613 0 -0.384613 0.769237 0 0 0 0 -0.731614 -0.365805 0 -0.365805 0.731542 0 0 0 0 -0.622295 -0.311162 0 -0.311162 0.622286 0 0 0 0 -0.452241 -0.226112 0 -0.226112 0.452037 0 0 0 0 -0.237707 -0.118868 0 -0.118868 0.23763 0 0 0 0 -4.08049e-05 -2.73799e-05 0 -2.73799e-05 -9.52234e-05 0 0 0 0 0.23763 0.118816 0 0.118816 -0.237811 0 0 0 0 0.452175 0.226068 0 0.226068 -0.452191 0 0 0 0 0.622247 0.31113 0 0.31113 -0.622398 0 0 0 0 0.73159 0.365788 0 0.365788 -0.7316 0 0 0 0 0.769227 0.384613 0 0.384613 -0.769221 0 0 0 0 0.731571 0.365782 0 0.365782 -0.731602 0 0 0 0 0.6407 0.347893 0 0.347893 -0.824318 0 0 0 0 0.487027 0.29593 0 0.29593 -0.836383 0 0 0 0 0.285853 0.21503 0 0.21503 -0.766502 0 0 0 0 0.0564977 0.113039 0 0.113039 -0.621674 0 0 0 0 -0.17826 1.16208e-05 0 1.16208e-05 -0.415941 0 0 0 0 -0.395568 -0.113012 0 -0.113012 -0.16949 0 0 0 0 -0.574284 -0.215018 0 -0.215018 0.093496 0 0 0 0 -0.696585 -0.295904 0 -0.295904 0.347416 0 0 0 0 -0.750869 -0.347892 0 -0.347892 0.567254 0 0 0 0 -0.731562 -0.365788 0 -0.365788 0.731609 0 0 0 0 -0.640699 -0.347893 0 -0.347893 0.824318 0 0 0 0 -0.487027 -0.29593 0 -0.29593 0.836383 0 0 0 0 -0.285853 -0.21503 0 -0.21503 0.766502 0 0 0 0 -0.0564977 -0.113039 0 -0.113039 0.621674 0 0 0 0 0.17826 -1.1624e-05 0 -1.1624e-05 0.415941 0 0 0 0 0.395568 0.113012 0 0.113012 0.16949 0 0 0 0 0.574284 0.215018 0 0.215018 -0.093496 0 0 0 0 0.696584 0.295904 0 0.295904 -0.347416 0 0 0 0 0.75087 0.347893 0 0.347893 -0.567253 0 0 0 0 0.731571 0.365798 0 0.365798 -0.731602 0 0 0 0 0.622342 0.311144 0 0.311144 -0.622271 0 0 0 0 0.487101 0.295922 0 0.295922 -0.836335 0 0 0 0 0.304107 0.251723 0 0.251723 -0.968569 0 0 0 0 0.0914904 0.182887 0 0.182887 -1.00593 0 0 0 0 -0.130251 0.096131 0 0.096131 -0.944889 0 0 0 0 -0.339136 -2.05549e-05 0 -2.05549e-05 -0.791316 0 0 0 0 -0.514821 -0.0961596 0 -0.0961596 -0.560279 0 0 0 0 -0.640223 -0.182934 0 -0.182934 -0.274449 0 0 0 0 -0.702784 -0.251723 0 -0.251723 0.0383221 0 0 0 0 -0.696697 -0.295947 0 -0.295947 0.347277 0 0 0 0 -0.622335 -0.311159 0 -0.311159 0.622276 0 0 0 0 -0.4871 -0.295924 0 -0.295924 0.836336 0 0 0 0 -0.304107 -0.251723 0 -0.251723 0.968569 0 0 0 0 -0.0914905 -0.182887 0 -0.182887 1.00593 0 0 0 0 0.130251 -0.096131 0 -0.096131 0.944889 0 0 0 0 0.339136 2.05475e-05 0 2.05475e-05 0.791316 0 0 0 0 0.514821 0.0961596 0 0.0961596 0.560279 0 0 0 0 0.640223 0.182934 0 0.182934 0.274449 0 0 0 0 0.702784 0.251723 0 0.251723 -0.038322 0 0 0 0 0.696698 0.295949 0 0.295949 -0.347276 0 0 0 0 0.622343 0.311177 0 0.311177 -0.622271 0 0 0 0 0.452114 0.226049 0 0.226049 -0.452208 0 0 0 0 0.285774 0.215004 0 0.215004 -0.766592 0 0 0 0 0.0914082 0.182911 0 0.182911 -1.00596 0 0 0 0 -0.1118 0.132892 0 0.132892 -1.14681 0 0 0 0 -0.304187 0.0698719 0 0.0698719 -1.17546 0 0 0 0 -0.46672 1.16506e-05 0 1.16506e-05 -1.08901 0 0 0 0 -0.583565 -0.0698353 0 -0.0698353 -0.895962 0 0 0 0 -0.643369 -0.132892 0 -0.132892 -0.615245 0 0 0 0 -0.64007 -0.182864 0 -0.182864 -0.274249 0 0 0 0 -0.574222 -0.215014 0 -0.215014 0.0935462 0 0 0 0 -0.452109 -0.22607 0 -0.22607 0.452211 0 0 0 0 -0.285774 -0.215006 0 -0.215006 0.766592 0 0 0 0 -0.0914082 -0.182911 0 -0.182911 1.00596 0 0 0 0 0.1118 -0.132892 0 -0.132892 1.14681 0 0 0 0 0.304187 -0.0698719 0 -0.0698719 1.17546 0 0 0 0 0.46672 -1.16515e-05 0 -1.16515e-05 1.08901 0 0 0 0 0.583565 0.0698353 0 0.0698353 0.895962 0 0 0 0 0.643369 0.132892 0 0.132892 0.615245 0 0 0 0 0.64007 0.182864 0 0.182864 0.274249 0 0 0 0 0.574223 0.215016 0 0.215016 -0.0935458 0 0 0 0 0.452115 0.226094 0 0.226094 -0.452208 0 0 0 0 0.23772 0.118826 0 0.118826 -0.237669 0 0 0 0 0.0565365 0.113023 0 0.113023 -0.621663 0 0 0 0 -0.13021 0.0961636 0 0.0961636 -0.944818 0 0 0 0 -0.304154 0.0698473 0 0.0698473 -1.17546 0 0 0 0 -0.44839 0.0367242 0 0.0367242 -1.29107 0 0 0 0 -0.548696 -8.91129e-06 0 -8.91129e-06 -1.28029 0 0 0 0 -0.595287 -0.0367242 0 -0.0367242 -1.14417 0 0 0 0 -0.583652 -0.069884 0 -0.069884 -0.896085 0 0 0 0 -0.514819 -0.0961351 0 -0.0961351 -0.560249 0 0 0 0 -0.395648 -0.113049 0 -0.113049 -0.169597 0 0 0 0 -0.237718 -0.118852 0 -0.118852 0.23767 0 0 0 0 -0.0565362 -0.113025 0 -0.113025 0.621663 0 0 0 0 0.13021 -0.0961636 0 -0.0961636 0.944819 0 0 0 0 0.304154 -0.0698471 0 -0.0698471 1.17546 0 0 0 0 0.44839 -0.0367242 0 -0.0367242 1.29107 0 0 0 0 0.548696 8.91082e-06 0 8.91082e-06 1.28029 0 0 0 0 0.595287 0.0367242 0 0.0367242 1.14417 0 0 0 0 0.583652 0.0698838 0 0.0698838 0.896085 0 0 0 0 0.514819 0.096135 0 0.096135 0.560249 0 0 0 0 0.395648 0.113051 0 0.113051 0.169597 0 0 0 0 0.237721 0.118879 0 0.118879 -0.237668 0 0 0 0 -3.11926e-07 -2.76167e-05 0 -2.76167e-05 -1.40408e-07 0 0 0 0 -0.178278 -1.17172e-05 0 -1.17172e-05 -0.415981 0 0 0 0 -0.339105 2.05405e-05 0 2.05405e-05 -0.791245 0 0 0 0 -0.466738 -1.16577e-05 0 -1.16577e-05 -1.08906 0 0 0 0 -0.548682 8.93662e-06 0 8.93662e-06 -1.28026 0 0 0 0 -0.576921 -1.11458e-08 0 -1.11458e-08 -1.34615 0 0 0 0 -0.548682 8.89475e-06 0 8.89475e-06 -1.28026 0 0 0 0 -0.466738 -1.18379e-05 0 -1.18379e-05 -1.08906 0 0 0 0 -0.339105 2.04671e-05 0 2.04671e-05 -0.791245 0 0 0 0 -0.178278 -9.50057e-06 0 -9.50057e-06 -0.415981 0 0 0 0 7.9085e-09 -7.22958e-11 0 -7.22958e-11 -9.68473e-09 0 0 0 0 0.178278 9.49182e-06 0 9.49182e-06 0.415981 0 0 0 0 0.339105 -2.04811e-05 0 -2.04811e-05 0.791245 0 0 0 0 0.466738 1.18284e-05 0 1.18284e-05 1.08906 0 0 0 0 0.548682 -8.89299e-06 0 -8.89299e-06 1.28026 0 0 0 0 0.576921 -1.38682e-09 0 -1.38682e-09 1.34615 0 0 0 0 0.548682 -8.90686e-06 0 -8.90686e-06 1.28026 0 0 0 0 0.466738 1.1656e-05 0 1.1656e-05 1.08906 0 0 0 0 0.339105 -2.05489e-05 0 -2.05489e-05 0.791245 0 0 0 0 0.178278 1.17319e-05 0 1.17319e-05 0.415981 0 0 0 0 3.28698e-07 2.76412e-05 0 2.76412e-05 1.37286e-07 0 0 0 0 -0.237721 -0.118879 0 -0.118879 0.237668 0 0 0 0 -0.395648 -0.113051 0 -0.113051 -0.169597 0 0 0 0 -0.514819 -0.096135 0 -0.096135 -0.560249 0 0 0 0 -0.583652 -0.0698838 0 -0.0698838 -0.896085 0 0 0 0 -0.595287 -0.0367241 0 -0.0367241 -1.14417 0 0 0 0 -0.548695 -8.88325e-06 0 -8.88325e-06 -1.28029 0 0 0 0 -0.44839 0.0367242 0 0.0367242 -1.29107 0 0 0 0 -0.304154 0.0698471 0 0.0698471 -1.17546 0 0 0 0 -0.13021 0.0961636 0 0.0961636 -0.944818 0 0 0 0 0.0565362 0.113025 0 0.113025 -0.621663 0 0 0 0 0.237718 0.118852 0 0.118852 -0.23767 0 0 0 0 0.395648 0.113049 0 0.113049 0.169597 0 0 0 0 0.514819 0.0961351 0 0.0961351 0.560249 0 0 0 0 0.583652 0.069884 0 0.069884 0.896085 0 0 0 0 0.595287 0.0367242 0 0.0367242 1.14417 0 0 0 0 0.548696 8.88695e-06 0 8.88695e-06 1.28029 0 0 0 0 0.44839 -0.0367242 0 -0.0367242 1.29107 0 0 0 0 0.304154 -0.0698473 0 -0.0698473 1.17546 0 0 0 0 0.13021 -0.0961637 0 -0.0961637 0.944818 0 0 0 0 -0.0565364 -0.113023 0 -0.113023 0.621663 0 0 0 0 -0.23772 -0.118826 0 -0.118826 0.237669 0 0 0 0 -0.452115 -0.226094 0 -0.226094 0.452208 0 0 0 0 -0.574223 -0.215016 0 -0.215016 0.093546 0 0 0 0 -0.64007 -0.182864 0 -0.182864 -0.274249 0 0 0 0 -0.643369 -0.132892 0 -0.132892 -0.615245 0 0 0 0 -0.583565 -0.0698352 0 -0.0698352 -0.895961 0 0 0 0 -0.46672 1.18591e-05 0 1.18591e-05 -1.08901 0 0 0 0 -0.304186 0.0698721 0 0.0698721 -1.17546 0 0 0 0 -0.111799 0.132892 0 0.132892 -1.14681 0 0 0 0 0.0914083 0.182911 0 0.182911 -1.00596 0 0 0 0 0.285774 0.215006 0 0.215006 -0.766592 0 0 0 0 0.452109 0.22607 0 0.22607 -0.452211 0 0 0 0 0.574222 0.215014 0 0.215014 -0.0935465 0 0 0 0 0.64007 0.182864 0 0.182864 0.274248 0 0 0 0 0.643369 0.132892 0 0.132892 0.615245 0 0 0 0 0.583565 0.0698352 0 0.0698352 0.895961 0 0 0 0 0.46672 -1.18323e-05 0 -1.18323e-05 1.08901 0 0 0 0 0.304186 -0.0698721 0 -0.0698721 1.17546 0 0 0 0 0.111799 -0.132892 0 -0.132892 1.14681 0 0 0 0 -0.0914083 -0.182911 0 -0.182911 1.00596 0 0 0 0 -0.285774 -0.215004 0 -0.215004 0.766591 0 0 0 0 -0.452114 -0.226049 0 -0.226049 0.452208 0 0 0 0 -0.622342 -0.311177 0 -0.311177 0.622271 0 0 0 0 -0.696698 -0.295949 0 -0.295949 0.347277 0 0 0 0 -0.702784 -0.251723 0 -0.251723 0.0383222 0 0 0 0 -0.640223 -0.182934 0 -0.182934 -0.274448 0 0 0 0 -0.514821 -0.0961596 0 -0.0961596 -0.560279 0 0 0 0 -0.339136 -2.04553e-05 0 -2.04553e-05 -0.791316 0 0 0 0 -0.130251 0.0961311 0 0.0961311 -0.944888 0 0 0 0 0.0914906 0.182887 0 0.182887 -1.00593 0 0 0 0 0.304107 0.251723 0 0.251723 -0.968569 0 0 0 0 0.4871 0.295924 0 0.295924 -0.836336 0 0 0 0 0.622335 0.311159 0 0.311159 -0.622276 0 0 0 0 0.696697 0.295947 0 0.295947 -0.347277 0 0 0 0 0.702784 0.251723 0 0.251723 -0.0383223 0 0 0 0 0.640223 0.182934 0 0.182934 0.274448 0 0 0 0 0.51482 0.0961596 0 0.0961596 0.560279 0 0 0 0 0.339136 2.04717e-05 0 2.04717e-05 0.791316 0 0 0 0 0.130251 -0.0961311 0 -0.0961311 0.944888 0 0 0 0 -0.0914906 -0.182887 0 -0.182887 1.00593 0 0 0 0 -0.304107 -0.251723 0 -0.251723 0.968568 0 0 0 0 -0.487101 -0.295922 0 -0.295922 0.836335 0 0 0 0 -0.622342 -0.311144 0 -0.311144 0.622271 0 0 0 0 -0.731572 -0.365799 0 -0.365799 0.731601 0 0 0 0 -0.750872 -0.347893 0 -0.347893 0.567249 0 0 0 0 -0.696587 -0.295905 0 -0.295905 0.347411 0 0 0 0 -0.574287 -0.21502 0 -0.21502 0.0934894 0 0 0 0 -0.395571 -0.113014 0 -0.113014 -0.169497 0 0 0 0 -0.178264 9.48143e-06 0 9.48143e-06 -0.415948 0 0 0 0 0.056495 0.113037 0 0.113037 -0.621681 0 0 0 0 0.285851 0.215028 0 0.215028 -0.766507 0 0 0 0 0.487026 0.295929 0 0.295929 -0.836387 0 0 0 0 0.640698 0.347892 0 0.347892 -0.824319 0 0 0 0 0.731563 0.365788 0 0.365788 -0.731607 0 0 0 0 0.750871 0.347892 0 0.347892 -0.56725 0 0 0 0 0.696587 0.295905 0 0.295905 -0.347411 0 0 0 0 0.574287 0.21502 0 0.21502 -0.0934894 0 0 0 0 0.395571 0.113014 0 0.113014 0.169497 0 0 0 0 0.178263 -9.49343e-06 0 -9.49343e-06 0.415948 0 0 0 0 -0.056495 -0.113037 0 -0.113037 0.621681 0 0 0 0 -0.285851 -0.215028 0 -0.215028 0.766507 0 0 0 0 -0.487026 -0.295929 0 -0.295929 0.836386 0 0 0 0 -0.640699 -0.347892 0 -0.347892 0.824319 0 0 0 0 -0.731571 -0.365782 0 -0.365782 0.731602 0 0 0 0 -0.769237 -0.384616 0 -0.384616 0.769221 0 0 0 0 -0.731608 -0.365797 0 -0.365797 0.731562 0 0 0 0 -0.622276 -0.311147 0 -0.311147 0.622335 0 0 0 0 -0.452211 -0.22609 0 -0.22609 0.452109 0 0 0 0 -0.23767 -0.118842 0 -0.118842 0.237718 0 0 0 0 -2.60646e-08 -1.2682e-08 0 -1.2682e-08 2.86931e-08 0 0 0 0 0.23767 0.118842 0 0.118842 -0.237718 0 0 0 0 0.452211 0.22609 0 0.22609 -0.452109 0 0 0 0 0.622276 0.311147 0 0.311147 -0.622335 0 0 0 0 0.731607 0.365797 0 0.365797 -0.731563 0 0 0 0 0.769228 0.384614 0 0.384614 -0.769228 0 0 0 0 0.731607 0.365797 0 0.365797 -0.731563 0 0 0 0 0.622276 0.311147 0 0.311147 -0.622335 0 0 0 0 0.452211 0.22609 0 0.22609 -0.452109 0 0 0 0 0.23767 0.118842 0 0.118842 -0.237718 0 0 0 0 -2.60644e-08 -1.2702e-08 0 -1.2702e-08 2.87317e-08 0 0 0 0 -0.23767 -0.118842 0 -0.118842 0.237718 0 0 0 0 -0.452211 -0.22609 0 -0.22609 0.452109 0 0 0 0 -0.622276 -0.311147 0 -0.311147 0.622335 0 0 0 0 -0.731608 -0.365797 0 -0.365797 0.731562 0 0 0 0 -0.769237 -0.384616 0 -0.384616 0.769221 0 0 0 0 -0.731571 -0.365782 0 -0.365782 0.731602 0 0 0 0 -0.640699 -0.347892 0 -0.347892 0.824319 0 0 0 0 -0.487026 -0.295929 0 -0.295929 0.836386 0 0 0 0 -0.285851 -0.215028 0 -0.215028 0.766507 0 0 0 0 -0.056495 -0.113037 0 -0.113037 0.621681 0 0 0 0 0.178263 -9.49344e-06 0 -9.49344e-06 0.415948 0 0 0 0 0.395571 0.113014 0 0.113014 0.169497 0 0 0 0 0.574287 0.21502 0 0.21502 -0.0934894 0 0 0 0 0.696587 0.295905 0 0.295905 -0.347411 0 0 0 0 0.750871 0.347892 0 0.347892 -0.56725 0 0 0 0 0.731563 0.365788 0 0.365788 -0.731607 0 0 0 0 0.640698 0.347892 0 0.347892 -0.824319 0 0 0 0 0.487026 0.295929 0 0.295929 -0.836387 0 0 0 0 0.285851 0.215028 0 0.215028 -0.766507 0 0 0 0 0.056495 0.113037 0 0.113037 -0.621681 0 0 0 0 -0.178264 9.48145e-06 0 9.48145e-06 -0.415948 0 0 0 0 -0.395571 -0.113014 0 -0.113014 -0.169497 0 0 0 0 -0.574287 -0.21502 0 -0.21502 0.0934894 0 0 0 0 -0.696587 -0.295905 0 -0.295905 0.347411 0 0 0 0 -0.750872 -0.347893 0 -0.347893 0.567249 0 0 0 0 -0.731572 -0.365799 0 -0.365799 0.731601 0 0 0 0 -0.622342 -0.311144 0 -0.311144 0.622271 0 0 0 0 -0.487101 -0.295922 0 -0.295922 0.836335 0 0 0 0 -0.304107 -0.251723 0 -0.251723 0.968568 0 0 0 0 -0.0914906 -0.182887 0 -0.182887 1.00593 0 0 0 0 0.130251 -0.0961311 0 -0.0961311 0.944888 0 0 0 0 0.339136 2.04717e-05 0 2.04717e-05 0.791316 0 0 0 0 0.51482 0.0961596 0 0.0961596 0.560279 0 0 0 0 0.640223 0.182934 0 0.182934 0.274448 0 0 0 0 0.702784 0.251723 0 0.251723 -0.0383223 0 0 0 0 0.696697 0.295947 0 0.295947 -0.347277 0 0 0 0 0.622335 0.311159 0 0.311159 -0.622276 0 0 0 0 0.4871 0.295924 0 0.295924 -0.836336 0 0 0 0 0.304107 0.251723 0 0.251723 -0.968569 0 0 0 0 0.0914906 0.182887 0 0.182887 -1.00593 0 0 0 0 -0.130251 0.0961311 0 0.0961311 -0.944888 0 0 0 0 -0.339136 -2.04552e-05 0 -2.04552e-05 -0.791316 0 0 0 0 -0.514821 -0.0961596 0 -0.0961596 -0.560279 0 0 0 0 -0.640223 -0.182934 0 -0.182934 -0.274448 0 0 0 0 -0.702784 -0.251723 0 -0.251723 0.0383222 0 0 0 0 -0.696698 -0.295949 0 -0.295949 0.347277 0 0 0 0 -0.622342 -0.311177 0 -0.311177 0.622271 0 0 0 0 -0.452114 -0.226049 0 -0.226049 0.452208 0 0 0 0 -0.285774 -0.215004 0 -0.215004 0.766591 0 0 0 0 -0.0914083 -0.182911 0 -0.182911 1.00596 0 0 0 0 0.111799 -0.132892 0 -0.132892 1.14681 0 0 0 0 0.304186 -0.0698721 0 -0.0698721 1.17546 0 0 0 0 0.46672 -1.18323e-05 0 -1.18323e-05 1.08901 0 0 0 0 0.583565 0.0698352 0 0.0698352 0.895961 0 0 0 0 0.643369 0.132892 0 0.132892 0.615245 0 0 0 0 0.64007 0.182864 0 0.182864 0.274248 0 0 0 0 0.574222 0.215014 0 0.215014 -0.0935465 0 0 0 0 0.452109 0.22607 0 0.22607 -0.452211 0 0 0 0 0.285774 0.215006 0 0.215006 -0.766592 0 0 0 0 0.0914083 0.182911 0 0.182911 -1.00596 0 0 0 0 -0.111799 0.132892 0 0.132892 -1.14681 0 0 0 0 -0.304186 0.0698721 0 0.0698721 -1.17546 0 0 0 0 -0.46672 1.18591e-05 0 1.18591e-05 -1.08901 0 0 0 0 -0.583565 -0.0698352 0 -0.0698352 -0.895961 0 0 0 0 -0.643369 -0.132892 0 -0.132892 -0.615245 0 0 0 0 -0.64007 -0.182864 0 -0.182864 -0.274249 0 0 0 0 -0.574223 -0.215016 0 -0.215016 0.093546 0 0 0 0 -0.452115 -0.226094 0 -0.226094 0.452208 0 0 0 0 -0.23772 -0.118826 0 -0.118826 0.237669 0 0 0 0 -0.0565364 -0.113023 0 -0.113023 0.621663 0 0 0 0 0.13021 -0.0961637 0 -0.0961637 0.944818 0 0 0 0 0.304154 -0.0698473 0 -0.0698473 1.17546 0 0 0 0 0.44839 -0.0367242 0 -0.0367242 1.29107 0 0 0 0 0.548696 8.88695e-06 0 8.88695e-06 1.28029 0 0 0 0 0.595287 0.0367242 0 0.0367242 1.14417 0 0 0 0 0.583652 0.069884 0 0.069884 0.896085 0 0 0 0 0.514819 0.0961351 0 0.0961351 0.560249 0 0 0 0 0.395648 0.113049 0 0.113049 0.169597 0 0 0 0 0.237718 0.118852 0 0.118852 -0.23767 0 0 0 0 0.0565362 0.113025 0 0.113025 -0.621663 0 0 0 0 -0.13021 0.0961636 0 0.0961636 -0.944818 0 0 0 0 -0.304154 0.0698471 0 0.0698471 -1.17546 0 0 0 0 -0.44839 0.0367242 0 0.0367242 -1.29107 0 0 0 0 -0.548695 -8.88324e-06 0 -8.88324e-06 -1.28029 0 0 0 0 -0.595287 -0.0367241 0 -0.0367241 -1.14417 0 0 0 0 -0.583652 -0.0698838 0 -0.0698838 -0.896085 0 0 0 0 -0.514819 -0.096135 0 -0.096135 -0.560249 0 0 0 0 -0.395648 -0.113051 0 -0.113051 -0.169597 0 0 0 0 -0.237721 -0.118879 0 -0.118879 0.237668 0 0 0 0 3.28828e-07 2.76412e-05 0 2.76412e-05 1.37342e-07 0 0 0 0 0.178278 1.17319e-05 0 1.17319e-05 0.415981 0 0 0 0 0.339105 -2.0549e-05 0 -2.0549e-05 0.791245 0 0 0 0 0.466738 1.1656e-05 0 1.1656e-05 1.08906 0 0 0 0 0.548682 -8.90686e-06 0 -8.90686e-06 1.28026 0 0 0 0 0.576921 -1.38222e-09 0 -1.38222e-09 1.34615 0 0 0 0 0.548682 -8.89298e-06 0 -8.89298e-06 1.28026 0 0 0 0 0.466738 1.18284e-05 0 1.18284e-05 1.08906 0 0 0 0 0.339105 -2.0481e-05 0 -2.0481e-05 0.791245 0 0 0 0 0.178278 9.49181e-06 0 9.49181e-06 0.415981 0 0 0 0 7.88024e-09 -6.71325e-11 0 -6.71325e-11 -9.6978e-09 0 0 0 0 -0.178278 -9.50056e-06 0 -9.50056e-06 -0.415981 0 0 0 0 -0.339105 2.04671e-05 0 2.04671e-05 -0.791245 0 0 0 0 -0.466738 -1.18379e-05 0 -1.18379e-05 -1.08906 0 0 0 0 -0.548682 8.89476e-06 0 8.89476e-06 -1.28026 0 0 0 0 -0.576921 -1.11464e-08 0 -1.11464e-08 -1.34615 0 0 0 0 -0.548682 8.93662e-06 0 8.93662e-06 -1.28026 0 0 0 0 -0.466738 -1.16577e-05 0 -1.16577e-05 -1.08906 0 0 0 0 -0.339105 2.05405e-05 0 2.05405e-05 -0.791245 0 0 0 0 -0.178278 -1.17172e-05 0 -1.17172e-05 -0.415981 0 0 0 0 -3.12002e-07 -2.76167e-05 0 -2.76167e-05 -1.40441e-07 0 0 0 0 0.237721 0.118879 0 0.118879 -0.237668 0 0 0 0 0.395648 0.113051 0 0.113051 0.169597 0 0 0 0 0.514819 0.096135 0 0.096135 0.560249 0 0 0 0 0.583652 0.0698838 0 0.0698838 0.896085 0 0 0 0 0.595287 0.0367242 0 0.0367242 1.14417 0 0 0 0 0.548696 8.91081e-06 0 8.91081e-06 1.28029 0 0 0 0 0.44839 -0.0367242 0 -0.0367242 1.29107 0 0 0 0 0.304154 -0.0698471 0 -0.0698471 1.17546 0 0 0 0 0.13021 -0.0961636 0 -0.0961636 0.944819 0 0 0 0 -0.0565362 -0.113025 0 -0.113025 0.621663 0 0 0 0 -0.237718 -0.118852 0 -0.118852 0.23767 0 0 0 0 -0.395648 -0.113049 0 -0.113049 -0.169597 0 0 0 0 -0.514819 -0.0961351 0 -0.0961351 -0.560249 0 0 0 0 -0.583652 -0.069884 0 -0.069884 -0.896085 0 0 0 0 -0.595287 -0.0367242 0 -0.0367242 -1.14417 0 0 0 0 -0.548696 -8.91127e-06 0 -8.91127e-06 -1.28029 0 0 0 0 -0.44839 0.0367242 0 0.0367242 -1.29107 0 0 0 0 -0.304154 0.0698473 0 0.0698473 -1.17546 0 0 0 0 -0.13021 0.0961636 0 0.0961636 -0.944818 0 0 0 0 0.0565365 0.113023 0 0.113023 -0.621663 0 0 0 0 0.23772 0.118826 0 0.118826 -0.237669 0 0 0 0 0.452115 0.226094 0 0.226094 -0.452208 0 0 0 0 0.574223 0.215016 0 0.215016 -0.0935458 0 0 0 0 0.64007 0.182864 0 0.182864 0.274249 0 0 0 0 0.643369 0.132892 0 0.132892 0.615245 0 0 0 0 0.583565 0.0698353 0 0.0698353 0.895962 0 0 0 0 0.46672 -1.16515e-05 0 -1.16515e-05 1.08901 0 0 0 0 0.304187 -0.0698719 0 -0.0698719 1.17546 0 0 0 0 0.1118 -0.132892 0 -0.132892 1.14681 0 0 0 0 -0.0914082 -0.182911 0 -0.182911 1.00596 0 0 0 0 -0.285774 -0.215006 0 -0.215006 0.766592 0 0 0 0 -0.452109 -0.22607 0 -0.22607 0.452211 0 0 0 0 -0.574222 -0.215014 0 -0.215014 0.0935462 0 0 0 0 -0.64007 -0.182864 0 -0.182864 -0.274249 0 0 0 0 -0.643369 -0.132892 0 -0.132892 -0.615245 0 0 0 0 -0.583565 -0.0698353 0 -0.0698353 -0.895962 0 0 0 0 -0.46672 1.16506e-05 0 1.16506e-05 -1.08901 0 0 0 0 -0.304187 0.0698719 0 0.0698719 -1.17546 0 0 0 0 -0.1118 0.132892 0 0.132892 -1.14681 0 0 0 0 0.0914082 0.182911 0 0.182911 -1.00596 0 0 0 0 0.285774 0.215004 0 0.215004 -0.766592 0 0 0 0 0.452114 0.226049 0 0.226049 -0.452208 0 0 0 0 0.622343 0.311177 0 0.311177 -0.622271 0 0 0 0 0.696698 0.295949 0 0.295949 -0.347276 0 0 0 0 0.702784 0.251723 0 0.251723 -0.038322 0 0 0 0 0.640223 0.182934 0 0.182934 0.274449 0 0 0 0 0.514821 0.0961596 0 0.0961596 0.560279 0 0 0 0 0.339136 2.05475e-05 0 2.05475e-05 0.791316 0 0 0 0 0.130251 -0.096131 0 -0.096131 0.944889 0 0 0 0 -0.0914905 -0.182887 0 -0.182887 1.00593 0 0 0 0 -0.304107 -0.251723 0 -0.251723 0.968569 0 0 0 0 -0.4871 -0.295924 0 -0.295924 0.836336 0 0 0 0 -0.622335 -0.311159 0 -0.311159 0.622276 0 0 0 0 -0.696697 -0.295947 0 -0.295947 0.347277 0 0 0 0 -0.702784 -0.251723 0 -0.251723 0.0383221 0 0 0 0 -0.640223 -0.182934 0 -0.182934 -0.274449 0 0 0 0 -0.514821 -0.0961596 0 -0.0961596 -0.560279 0 0 0 0 -0.339136 -2.05549e-05 0 -2.05549e-05 -0.791316 0 0 0 0 -0.130251 0.096131 0 0.096131 -0.944889 0 0 0 0 0.0914904 0.182887 0 0.182887 -1.00593 0 0 0 0 0.304107 0.251723 0 0.251723 -0.968569 0 0 0 0 0.487101 0.295922 0 0.295922 -0.836335 0 0 0 0 0.622342 0.311144 0 0.311144 -0.622271 0 0 0 0 0.731571 0.365798 0 0.365798 -0.731602 0 0 0 0 0.75087 0.347893 0 0.347893 -0.567253 0 0 0 0 0.696584 0.295904 0 0.295904 -0.347416 0 0 0 0 0.574284 0.215018 0 0.215018 -0.093496 0 0 0 0 0.395568 0.113012 0 0.113012 0.16949 0 0 0 0 0.17826 -1.16239e-05 0 -1.16239e-05 0.415941 0 0 0 0 -0.0564977 -0.113039 0 -0.113039 0.621674 0 0 0 0 -0.285853 -0.21503 0 -0.21503 0.766502 0 0 0 0 -0.487027 -0.29593 0 -0.29593 0.836383 0 0 0 0 -0.640699 -0.347893 0 -0.347893 0.824318 0 0 0 0 -0.731562 -0.365788 0 -0.365788 0.731609 0 0 0 0 -0.750869 -0.347892 0 -0.347892 0.567254 0 0 0 0 -0.696585 -0.295904 0 -0.295904 0.347416 0 0 0 0 -0.574284 -0.215018 0 -0.215018 0.093496 0 0 0 0 -0.395568 -0.113012 0 -0.113012 -0.16949 0 0 0 0 -0.17826 1.1