<?xml version="1.0"?> 
<VTKFile type="StructuredGrid" version="0.1"> 
<StructuredGrid WholeExtent="0 20 0 20 0 0"> 
<Piece Extent="0 20 0 20 0 0"> 
<PointData>
<DataArray type="Float32" Name="displacement" format="ascii" NumberOfComponents="3"> 
7.7059e-09 1 0 0.0499792 0.99875 0 0.0998334 0.995004 0 0.149438 0.988771 0 0.198669 0.980067 0 0.247404 0.968912 0 0.29552 0.955336 0 0.342898 0.939373 0 0.389418 0.921061 0 0.434966 0.900447 0 0.479425 0.877582 0 0.522687 0.852525 0 0.564642 0.825335 0 0.605186 0.796084 0 0.644218 0.764842 0 0.681639 0.731689 0 0.717356 0.696707 0 0.75128 0.659983 0 0.783327 0.62161 0 0.813415 0.581683 0 0.841471 0.540302 0 -9.60782e-10 0.99875 0 0.0449376 0.990383 0 0.0982368 0.983028 0 0.150439 0.975476 0 0.200084 0.966845 0 0.24942 0.956433 0 0.298855 0.943957 0 0.347195 0.929494 0 0.393858 0.913047 0 0.439301 0.894489 0 0.483841 0.873765 0 0.527148 0.851064 0 0.568879 0.826564 0 0.609253 0.800139 0 0.648625 0.77161 0 0.686632 0.741448 0 0.722479 0.710509 0 0.756227 0.678696 0 0.78892 0.64482 0 0.819179 0.610223 0 0.840419 0.581683 0 -2.89321e-10 0.995004 0 0.0441631 0.980892 0 0.0976234 0.969468 0 0.15024 0.960309 0 0.200324 0.95196 0 0.250108 0.942537 0 0.299907 0.931302 0 0.348371 0.918502 0 0.394859 0.904182 0 0.439914 0.888025 0 0.483954 0.869824 0 0.526739 0.849783 0 0.568 0.828126 0 0.60795 0.804771 0 0.646915 0.779589 0 0.684603 0.753094 0 0.720337 0.726195 0 0.75397 0.699126 0 0.785958 0.671339 0 0.815202 0.643944 0 0.837267 0.62161 0 6.2396e-10 0.988771 0 0.0449716 0.970963 0 0.0985127 0.956427 0 0.151127 0.946014 0 0.201292 0.938014 0 0.251177 0.929593 0 0.301018 0.919627 0 0.349369 0.908478 0 0.395552 0.896207 0 0.44016 0.882336 0 0.483671 0.866532 0 0.525907 0.848998 0 0.566647 0.829989 0 0.60609 0.809486 0 0.644529 0.787427 0 0.681716 0.764352 0 0.717061 0.741179 0 0.750304 0.718425 0 0.781564 0.696148 0 0.809886 0.675501 0 0.832022 0.659983 0 4.11123e-11 0.980067 0 0.0462248 0.960199 0 0.100423 0.943687 0 0.153082 0.932535 0 0.202947 0.92498 0 0.252573 0.91758 0 0.30226 0.908942 0 0.350353 0.899455 0 0.396083 0.889153 0 0.440154 0.877441 0 0.483133 0.863889 0 0.524818 0.848708 0 0.564959 0.832176 0 0.603789 0.81431 0 0.641655 0.795091 0 0.67828 0.775119 0 0.712993 0.755388 0 0.745574 0.736579 0 0.776316 0.719015 0 0.804085 0.704291 0 0.824698 0.696707 0 -3.38119e-10 0.968912 0 0.0475335 0.947722 0 0.102425 0.929977 0 0.155027 0.918537 0 0.20436 0.911626 0 0.253433 0.905388 0 0.30266 0.898232 0 0.350206 0.890529 0 0.395227 0.882274 0 0.438528 0.872781 0 0.480753 0.861547 0 0.521676 0.848769 0 0.561011 0.834732 0 0.599016 0.819509 0 0.636081 0.803149 0 0.671919 0.78628 0 0.705825 0.769898 0 0.73763 0.754867 0 0.767787 0.741901 0 0.795177 0.732805 0 0.815312 0.731689 0 -7.25561e-11 0.955336 0 0.0487277 0.93331 0 0.104174 0.914953 0 0.15658 0.903669 0 0.205216 0.897659 0 0.253496 0.892779 0 0.301961 0.887285 0 0.348661 0.881516 0 0.392708 0.875421 0 0.434985 0.868249 0 0.476201 0.859438 0 0.516114 0.849153 0 0.554417 0.837667 0 0.591375 0.825133 0 0.627396 0.811699 0 0.66222 0.797976 0 0.695177 0.784875 0 0.726139 0.773484 0 0.755607 0.765094 0 0.782752 0.761387 0 0.803888 0.764842 0 1.77912e-10 0.939373 0 0.049823 0.917308 0 0.105825 0.899074 0 0.157959 0.888437 0 0.205731 0.883603 0 0.253022 0.880268 0 0.300528 0.876587 0 0.346186 0.87285 0 0.389069 0.868964 0 0.430159 0.864128 0 0.470232 0.857737 0 0.509006 0.849928 0 0.546123 0.840959 0 0.581883 0.83105 0 0.616749 0.820434 0 0.650467 0.809704 0 0.682344 0.799698 0 0.712342 0.791687 0 0.741184 0.787436 0 0.768321 0.788525 0 0.790455 0.796084 0 9.19457e-11 0.921061 0 0.0508357 0.89983 0 0.107402 0.882501 0 0.159193 0.873033 0 0.205946 0.869672 0 0.252085 0.868078 0 0.298488 0.866355 0 0.342962 0.864737 0 0.384544 0.86308 0 0.424338 0.860558 0 0.463199 0.85654 0 0.500764 0.851143 0 0.536593 0.844616 0 0.571055 0.837214 0 0.604721 0.829222 0 0.637304 0.821237 0 0.667993 0.814077 0 0.696907 0.809117 0 0.725244 0.808366 0 0.752593 0.813487 0 0.775046 0.825335 0 -7.0534e-11 0.900447 0 0.0517737 0.880603 0 0.108701 0.864895 0 0.159985 0.857127 0 0.205601 0.855558 0 0.250443 0.855935 0 0.295563 0.856362 0 0.338688 0.856989 0 0.378842 0.857625 0 0.417228 0.85744 0 0.454768 0.855802 0 0.491021 0.852808 0 0.525472 0.848689 0 0.55855 0.843725 0 0.59093 0.838233 0 0.622295 0.832815 0 0.651733 0.828277 0 0.679532 0.826058 0 0.707361 0.82832 0 0.734936 0.836844 0 0.7577 0.852525 0 -9.05529e-11 0.877582 0 0.0525777 0.859489 0 0.109521 0.846046 0 0.160073 0.840494 0 0.204445 0.84105 0 0.247852 0.843652 0 0.291496 0.846442 0 0.333104 0.849468 0 0.371716 0.852485 0 0.408593 0.854693 0 0.444687 0.855481 0 0.479512 0.854917 0 0.512511 0.853204 0 0.544141 0.850641 0 0.575126 0.847576 0 0.605161 0.8446 0 0.63332 0.842479 0 0.660024 0.842707 0 0.687249 0.847614 0 0.714919 0.859021 0 0.73846 0.877582 0 -1.07646e-11 0.852525 0 0.0529976 0.836845 0 0.109734 0.826242 0 0.159368 0.82335 0 0.202321 0.82635 0 0.244146 0.831412 0 0.286197 0.836732 0 0.326193 0.842265 0 0.363187 0.847725 0 0.398494 0.852355 0 0.433093 0.855576 0 0.466454 0.857429 0 0.49797 0.858089 0 0.528123 0.857862 0 0.557679 0.857115 0 0.586343 0.856414 0 0.61318 0.856478 0 0.638744 0.858837 0 0.665305 0.86596 0 0.693015 0.879688 0 0.717375 0.900447 0 7.9065e-11 0.825335 0 0.0528422 0.812991 0 0.109249 0.805766 0 0.157807 0.805923 0 0.199101 0.811674 0 0.239186 0.819406 0 0.279596 0.827381 0 0.317956 0.835491 0 0.353293 0.843426 0 0.387011 0.850477 0 0.420146 0.856101 0 0.452083 0.860321 0 0.48213 0.863291 0 0.510814 0.865306 0 0.538981 0.866726 0 0.566307 0.868091 0 0.591768 0.870084 0 0.616076 0.874237 0 0.641952 0.88306 0 0.669728 0.898477 0 0.694496 0.921061 0 8.71707e-11 0.796084 0 0.0524423 0.787558 0 0.108133 0.784378 0 0.155293 0.788092 0 0.194716 0.796905 0 0.232915 0.807525 0 0.271587 0.818326 0 0.308256 0.829126 0 0.341915 0.839595 0 0.37405 0.84909 0 0.405738 0.857119 0 0.436276 0.863695 0 0.464883 0.868946 0 0.492128 0.87314 0 0.518943 0.876606 0 0.544952 0.879856 0 0.569005 0.88355 0 0.591973 0.889172 0 0.617065 0.899155 0 0.644816 0.915532 0 0.669881 0.939373 0 -5.77313e-11 0.764842 0 0.0522185 0.760043 0 0.106446 0.761733 0 0.151687 0.769659 0 0.18908 0.78185 0 0.225274 0.79559 0 0.262037 0.809449 0 0.296907 0.823115 0 0.328886 0.836213 0 0.359457 0.84821 0 0.389685 0.858698 0 0.418815 0.867674 0 0.446017 0.875227 0 0.471878 0.881581 0 0.497357 0.88702 0 0.522039 0.892027 0 0.54469 0.897238 0 0.566295 0.904029 0 0.5904 0.914627 0 0.617861 0.931142 0 0.643592 0.955336 0 -1.8075e-10 0.731689 0 0.0515257 0.731143 0 0.103595 0.73838 0 0.1465 0.750991 0 0.181733 0.76681 0 0.215861 0.783832 0 0.250649 0.800882 0 0.283715 0.817504 0 0.314085 0.833276 0 0.343182 0.847793 0 0.372017 0.86075 0 0.399811 0.872123 0 0.425722 0.881962 0 0.450324 0.890433 0 0.474568 0.89776 0 0.497995 0.904393 0 0.519313 0.910947 0 0.539575 0.918628 0 0.562545 0.929326 0 0.589418 0.945203 0 0.615695 0.968912 0 3.31753e-11 0.696707 0 0.0490825 0.70227 0 0.0985926 0.715403 0 0.139033 0.732793 0 0.171991 0.75238 0 0.204067 0.772731 0 0.237034 0.792907 0 0.268487 0.8124 0 0.297426 0.830788 0 0.325237 0.847762 0 0.352895 0.863093 0 0.379583 0.876756 0 0.404426 0.888776 0 0.427999 0.899251 0 0.451251 0.908331 0 0.473648 0.91643 0 0.49378 0.924143 0 0.512755 0.932453 0 0.534589 0.94279 0 0.560625 0.957379 0 0.586259 0.980067 0 3.36076e-10 0.659983 0 0.0451514 0.673184 0 0.091373 0.692631 0 0.129088 0.714963 0 0.159767 0.738456 0 0.189884 0.762187 0 0.22115 0.785461 0 0.251149 0.807781 0 0.278851 0.828758 0 0.305576 0.848156 0 0.33224 0.865808 0 0.35802 0.881693 0 0.382033 0.895823 0 0.404826 0.908227 0 0.427309 0.918966 0 0.44889 0.928414 0 0.46809 0.937146 0 0.485985 0.945861 0 0.506604 0.955407 0 0.531284 0.968009 0 0.555357 0.988771 0 -1.6246e-10 0.62161 0 0.0417752 0.641733 0 0.0829285 0.668445 0 0.117033 0.696469 0 0.145663 0.724126 0 0.173994 0.751434 0 0.203359 0.778084 0 0.231767 0.803477 0 0.258337 0.827203 0 0.28408 0.849157 0 0.309696 0.869273 0 0.334519 0.887521 0 0.357836 0.903874 0 0.380027 0.918286 0 0.401756 0.930734 0 0.422533 0.941543 0 0.44119 0.951254 0 0.458501 0.960213 0 0.477489 0.968548 0 0.49966 0.97821 0 0.523067 0.995004 0 -5.15161e-10 0.581683 0 0.0381025 0.608773 0 0.0722391 0.643206 0 0.102047 0.677347 0 0.129166 0.709464 0 0.156084 0.740588 0 0.183403 0.770825 0 0.210103 0.799471 0 0.235697 0.826099 0 0.260616 0.850754 0 0.285151 0.873482 0 0.30898 0.894222 0 0.331751 0.91289 0 0.353555 0.929387 0 0.374604 0.943636 0 0.394683 0.955866 0 0.413326 0.966488 0 0.430765 0.975508 0 0.448049 0.982474 0 0.466754 0.988615 0 0.489469 0.99875 0 4.15526e-09 0.540302 0 0.0270039 0.581683 0 0.0539402 0.62161 0 0.0807418 0.659983 0 0.107342 0.696707 0 0.133673 0.731689 0 0.15967 0.764842 0 0.185268 0.796084 0 0.210404 0.825335 0 0.235013 0.852525 0 0.259035 0.877582 0 0.282409 0.900447 0 0.305078 0.921061 0 0.326984 0.939373 0 0.348072 0.955336 0 0.368291 0.968912 0 0.387589 0.980067 0 0.405918 0.988771 0 0.423233 0.995004 0 0.43949 0.99875 0 0.454649 1 0 </DataArray> 
<DataArray type="Float32" Name="stress" format="ascii" NumberOfComponents="9"> 
1.34616 5.37134e-06 0 5.37134e-06 0.576942 0 0 0 0 1.25759 -0.0817979 0 -0.0817979 0.373481 0 0 0 0 1.21958 -0.0528023 0 -0.0528023 0.294388 0 0 0 0 1.20033 -0.0385575 0 -0.0385575 0.265457 0 0 0 0 1.18766 -0.0555059 0 -0.0555059 0.258201 0 0 0 0 1.17876 -0.0695826 0 -0.0695826 0.266046 0 0 0 0 1.17186 -0.0724739 0 -0.0724739 0.284751 0 0 0 0 1.16596 -0.0783854 0 -0.0783854 0.311929 0 0 0 0 1.15985 -0.093399 0 -0.093399 0.344615 0 0 0 0 1.15183 -0.109989 0 -0.109989 0.378776 0 0 0 0 1.14136 -0.122652 0 -0.122652 0.412956 0 0 0 0 1.1311 -0.135196 0 -0.135196 0.45327 0 0 0 0 1.12314 -0.151547 0 -0.151547 0.504425 0 0 0 0 1.11297 -0.16697 0 -0.16697 0.555666 0 0 0 0 1.09487 -0.174712 0 -0.174712 0.593567 0 0 0 0 1.07691 -0.179056 0 -0.179056 0.636638 0 0 0 0 1.07507 -0.190983 0 -0.190983 0.7221 0 0 0 0 1.08212 -0.206589 0 -0.206589 0.832671 0 0 0 0 1.06386 -0.204974 0 -0.204974 0.888474 0 0 0 0 1.05093 -0.207071 0 -0.207071 0.960681 0 0 0 0 1.21278 -0.323641 0 -0.323641 1.44446 0 0 0 0 0.974543 -0.0714501 0 -0.0714501 0.362737 0 0 0 0 1.26477 -0.0775486 0 -0.0775486 0.342779 0 0 0 0 1.30169 -0.0652234 0 -0.0652234 0.268482 0 0 0 0 1.19052 -0.0615245 0 -0.0615245 0.186116 0 0 0 0 1.15537 -0.068784 0 -0.068784 0.175536 0 0 0 0 1.17725 -0.0801791 0 -0.0801791 0.204915 0 0 0 0 1.17815 -0.0902267 0 -0.0902267 0.231504 0 0 0 0 1.15274 -0.101923 0 -0.101923 0.256111 0 0 0 0 1.13632 -0.118026 0 -0.118026 0.294355 0 0 0 0 1.13731 -0.137005 0 -0.137005 0.345644 0 0 0 0 1.13813 -0.155517 0 -0.155517 0.399339 0 0 0 0 1.12889 -0.172439 0 -0.172439 0.452387 0 0 0 0 1.11956 -0.189329 0 -0.189329 0.510616 0 0 0 0 1.12366 -0.207575 0 -0.207575 0.579089 0 0 0 0 1.13326 -0.224301 0 -0.224301 0.65329 0 0 0 0 1.12592 -0.233481 0 -0.233481 0.72708 0 0 0 0 1.1083 -0.237293 0 -0.237293 0.80967 0 0 0 0 1.1216 -0.249046 0 -0.249046 0.92257 0 0 0 0 1.16882 -0.270363 0 -0.270363 1.068 0 0 0 0 1.10069 -0.257523 0 -0.257523 1.18592 0 0 0 0 0.854764 -0.193274 0 -0.193274 1.26019 0 0 0 0 0.905708 -0.119653 0 -0.119653 0.27846 0 0 0 0 1.2516 -0.0947661 0 -0.0947661 0.321471 0 0 0 0 1.30753 -0.07757 0 -0.07757 0.262496 0 0 0 0 1.19835 -0.0643945 0 -0.0643945 0.182361 0 0 0 0 1.16515 -0.0632665 0 -0.0632665 0.175419 0 0 0 0 1.1879 -0.0745581 0 -0.0745581 0.207673 0 0 0 0 1.18534 -0.0867463 0 -0.0867463 0.234448 0 0 0 0 1.15243 -0.0984896 0 -0.0984896 0.257221 0 0 0 0 1.12975 -0.113306 0 -0.113306 0.294323 0 0 0 0 1.12741 -0.132169 0 -0.132169 0.346108 0 0 0 0 1.12755 -0.151885 0 -0.151885 0.401635 0 0 0 0 1.11946 -0.169619 0 -0.169619 0.456203 0 0 0 0 1.11132 -0.185965 0 -0.185965 0.513977 0 0 0 0 1.11595 -0.203477 0 -0.203477 0.582309 0 0 0 0 1.12812 -0.22097 0 -0.22097 0.661021 0 0 0 0 1.12674 -0.231397 0 -0.231397 0.740911 0 0 0 0 1.11271 -0.233791 0 -0.233791 0.821066 0 0 0 0 1.11455 -0.238699 0 -0.238699 0.922064 0 0 0 0 1.14386 -0.252393 0 -0.252393 1.06824 0 0 0 0 1.09995 -0.241908 0 -0.241908 1.20944 0 0 0 0 0.905791 -0.171503 0 -0.171503 1.249 0 0 0 0 0.914963 -0.146561 0 -0.146561 0.227901 0 0 0 0 1.25562 -0.117448 0 -0.117448 0.314055 0 0 0 0 1.3164 -0.0842312 0 -0.0842312 0.285662 0 0 0 0 1.21595 -0.0547386 0 -0.0547386 0.220948 0 0 0 0 1.18475 -0.0484544 0 -0.0484544 0.215927 0 0 0 0 1.20674 -0.0604474 0 -0.0604474 0.247114 0 0 0 0 1.20145 -0.0713859 0 -0.0713859 0.27304 0 0 0 0 1.16279 -0.0804881 0 -0.0804881 0.29244 0 0 0 0 1.1338 -0.093549 0 -0.093549 0.323578 0 0 0 0 1.12601 -0.11142 0 -0.11142 0.368366 0 0 0 0 1.12206 -0.129674 0 -0.129674 0.416976 0 0 0 0 1.11139 -0.145762 0 -0.145762 0.465035 0 0 0 0 1.10112 -0.160978 0 -0.160978 0.516243 0 0 0 0 1.10201 -0.177075 0 -0.177075 0.576108 0 0 0 0 1.10899 -0.19207 0 -0.19207 0.643483 0 0 0 0 1.10428 -0.200204 0 -0.200204 0.711951 0 0 0 0 1.08921 -0.20197 0 -0.20197 0.783531 0 0 0 0 1.08126 -0.202701 0 -0.202701 0.870117 0 0 0 0 1.08521 -0.202695 0 -0.202695 0.98158 0 0 0 0 1.03834 -0.183254 0 -0.183254 1.09875 0 0 0 0 0.914351 -0.138278 0 -0.138278 1.21744 0 0 0 0 0.927884 -0.159381 0 -0.159381 0.17936 0 0 0 0 1.26666 -0.132782 0 -0.132782 0.290417 0 0 0 0 1.32147 -0.0915951 0 -0.0915951 0.279989 0 0 0 0 1.21216 -0.0511268 0 -0.0511268 0.222063 0 0 0 0 1.17881 -0.0404742 0 -0.0404742 0.219373 0 0 0 0 1.20615 -0.0523348 0 -0.0523348 0.254675 0 0 0 0 1.20222 -0.0627982 0 -0.0627982 0.283546 0 0 0 0 1.15901 -0.0709507 0 -0.0709507 0.302518 0 0 0 0 1.12606 -0.0836387 0 -0.0836387 0.332001 0 0 0 0 1.11735 -0.101812 0 -0.101812 0.375725 0 0 0 0 1.11308 -0.120283 0 -0.120283 0.423425 0 0 0 0 1.10079 -0.13637 0 -0.13637 0.469736 0 0 0 0 1.08855 -0.151623 0 -0.151623 0.518489 0 0 0 0 1.08873 -0.167566 0 -0.167566 0.575851 0 0 0 0 1.09548 -0.181896 0 -0.181896 0.640356 0 0 0 0 1.08817 -0.188854 0 -0.188854 0.704357 0 0 0 0 1.06859 -0.189204 0 -0.189204 0.769966 0 0 0 0 1.05905 -0.186534 0 -0.186534 0.850074 0 0 0 0 1.06351 -0.178966 0 -0.178966 0.952023 0 0 0 0 0.998036 -0.145254 0 -0.145254 1.04913 0 0 0 0 0.831457 -0.0832792 0 -0.0832792 1.14465 0 0 0 0 0.941576 -0.167435 0 -0.167435 0.131649 0 0 0 0 1.27126 -0.14454 0 -0.14454 0.248201 0 0 0 0 1.31396 -0.100152 0 -0.100152 0.245865 0 0 0 0 1.19087 -0.0522909 0 -0.0522909 0.191503 0 0 0 0 1.15385 -0.0374442 0 -0.0374442 0.192534 0 0 0 0 1.18692 -0.048574 0 -0.048574 0.234418 0 0 0 0 1.18533 -0.0592643 0 -0.0592643 0.268384 0 0 0 0 1.1395 -0.0677043 0 -0.0677043 0.289764 0 0 0 0 1.10483 -0.0809265 0 -0.0809265 0.321358 0 0 0 0 1.0974 -0.100272 0 -0.100272 0.368358 0 0 0 0 1.09502 -0.120311 0 -0.120311 0.419791 0 0 0 0 1.08324 -0.137903 0 -0.137903 0.468901 0 0 0 0 1.07083 -0.154198 0 -0.154198 0.519343 0 0 0 0 1.07201 -0.170605 0 -0.170605 0.57881 0 0 0 0 1.08093 -0.185265 0 -0.185265 0.646812 0 0 0 0 1.07465 -0.192444 0 -0.192444 0.713448 0 0 0 0 1.05404 -0.191802 0 -0.191802 0.777868 0 0 0 0 1.04625 -0.18482 0 -0.18482 0.856466 0 0 0 0 1.0589 -0.1707 0 -0.1707 0.964101 0 0 0 0 0.993883 -0.12876 0 -0.12876 1.05851 0 0 0 0 0.793604 -0.0466788 0 -0.0466788 1.08916 0 0 0 0 0.953191 -0.173147 0 -0.173147 0.0837724 0 0 0 0 1.27508 -0.151743 0 -0.151743 0.210944 0 0 0 0 1.30624 -0.103826 0 -0.103826 0.218481 0 0 0 0 1.16972 -0.0500926 0 -0.0500926 0.168628 0 0 0 0 1.12795 -0.0319175 0 -0.0319175 0.173494 0 0 0 0 1.16448 -0.0420907 0 -0.0420907 0.221076 0 0 0 0 1.16417 -0.0525052 0 -0.0525052 0.259239 0 0 0 0 1.11614 -0.0609054 0 -0.0609054 0.282428 0 0 0 0 1.0799 -0.0743886 0 -0.0743886 0.315158 0 0 0 0 1.07303 -0.094377 0 -0.094377 0.363722 0 0 0 0 1.07163 -0.115286 0 -0.115286 0.416743 0 0 0 0 1.05991 -0.13391 0 -0.13391 0.466714 0 0 0 0 1.04702 -0.151032 0 -0.151032 0.51723 0 0 0 0 1.04794 -0.167406 0 -0.167406 0.57644 0 0 0 0 1.05704 -0.181466 0 -0.181466 0.644114 0 0 0 0 1.05144 -0.188558 0 -0.188558 0.709908 0 0 0 0 1.03163 -0.187834 0 -0.187834 0.771925 0 0 0 0 1.02503 -0.176648 0 -0.176648 0.8467 0 0 0 0 1.04039 -0.153621 0 -0.153621 0.950609 0 0 0 0 0.992534 -0.109547 0 -0.109547 1.04335 0 0 0 0 0.823479 -0.0348958 0 -0.0348958 1.06086 0 0 0 0 0.959432 -0.173009 0 -0.173009 0.0343638 0 0 0 0 1.28228 -0.152626 0 -0.152626 0.182397 0 0 0 0 1.30322 -0.10145 0 -0.10145 0.202827 0 0 0 0 1.15064 -0.0434885 0 -0.0434885 0.157353 0 0 0 0 1.10273 -0.0231549 0 -0.0231549 0.165854 0 0 0 0 1.1425 -0.0323744 0 -0.0323744 0.218887 0 0 0 0 1.14315 -0.0420642 0 -0.0420642 0.260476 0 0 0 0 1.09239 -0.050085 0 -0.050085 0.284219 0 0 0 0 1.05426 -0.0635837 0 -0.0635837 0.316543 0 0 0 0 1.0479 -0.0837205 0 -0.0837205 0.364798 0 0 0 0 1.04684 -0.104691 0 -0.104691 0.41688 0 0 0 0 1.03361 -0.123587 0 -0.123587 0.464784 0 0 0 0 1.01869 -0.141147 0 -0.141147 0.512776 0 0 0 0 1.01876 -0.157235 0 -0.157235 0.569099 0 0 0 0 1.02725 -0.170084 0 -0.170084 0.632376 0 0 0 0 1.01985 -0.176382 0 -0.176382 0.692108 0 0 0 0 0.998188 -0.17578 0 -0.17578 0.748079 0 0 0 0 0.99395 -0.161715 0 -0.161715 0.816909 0 0 0 0 1.0144 -0.130244 0 -0.130244 0.909286 0 0 0 0 0.979535 -0.083598 0 -0.083598 0.991053 0 0 0 0 0.844954 -0.0251934 0 -0.0251934 1.02715 0 0 0 0 0.960986 -0.166319 0 -0.166319 -0.0160754 0 0 0 0 1.28755 -0.146814 0 -0.146814 0.149574 0 0 0 0 1.29777 -0.0949474 0 -0.0949474 0.181988 0 0 0 0 1.12617 -0.0354295 0 -0.0354295 0.139956 0 0 0 0 1.07116 -0.0139557 0 -0.0139557 0.152168 0 0 0 0 1.11501 -0.0224608 0 -0.0224608 0.211614 0 0 0 0 1.11727 -0.0319155 0 -0.0319155 0.257558 0 0 0 0 1.064 -0.0400805 0 -0.0400805 0.282512 0 0 0 0 1.02461 -0.0538387 0 -0.0538387 0.315151 0 0 0 0 1.02014 -0.0742563 0 -0.0742563 0.364147 0 0 0 0 1.02037 -0.0955073 0 -0.0955073 0.416241 0 0 0 0 1.00528 -0.114803 0 -0.114803 0.462457 0 0 0 0 0.987812 -0.132787 0 -0.132787 0.508088 0 0 0 0 0.988105 -0.148855 0 -0.148855 0.562357 0 0 0 0 0.997832 -0.161179 0 -0.161179 0.62253 0 0 0 0 0.987944 -0.167029 0 -0.167029 0.676356 0 0 0 0 0.961757 -0.166225 0 -0.166225 0.725102 0 0 0 0 0.962782 -0.150285 0 -0.150285 0.789086 0 0 0 0 0.998078 -0.113965 0 -0.113965 0.875112 0 0 0 0 0.967379 -0.0631477 0 -0.0631477 0.943068 0 0 0 0 0.825299 -0.00707317 0 -0.00707317 0.974191 0 0 0 0 0.964527 -0.157019 0 -0.157019 -0.06462 0 0 0 0 1.28473 -0.135579 0 -0.135579 0.106638 0 0 0 0 1.28244 -0.0850284 0 -0.0850284 0.148612 0 0 0 0 1.09395 -0.0267496 0 -0.0267496 0.111056 0 0 0 0 1.03229 -0.00497991 0 -0.00497991 0.127674 0 0 0 0 1.07933 -0.0129707 0 -0.0129707 0.193977 0 0 0 0 1.08347 -0.0229067 0 -0.0229067 0.245414 0 0 0 0 1.02923 -0.0320009 0 -0.0320009 0.273279 0 0 0 0 0.989903 -0.0463752 0 -0.0463752 0.307807 0 0 0 0 0.988063 -0.0672951 0 -0.0672951 0.359027 0 0 0 0 0.990351 -0.0893018 0 -0.0893018 0.41286 0 0 0 0 0.974397 -0.109468 0 -0.109468 0.459173 0 0 0 0 0.955268 -0.128033 0 -0.128033 0.503914 0 0 0 0 0.956448 -0.144339 0 -0.144339 0.557611 0 0 0 0 0.968262 -0.156974 0 -0.156974 0.616847 0 0 0 0 0.957192 -0.163242 0 -0.163242 0.667167 0 0 0 0 0.927617 -0.162255 0 -0.162255 0.709896 0 0 0 0 0.935033 -0.144721 0 -0.144721 0.770125 0 0 0 0 0.988024 -0.10628 0 -0.10628 0.855002 0 0 0 0 0.963307 -0.0530069 0 -0.0530069 0.913438 0 0 0 0 0.803943 0.00937911 0 0.00937911 0.918924 0 0 0 0 0.971258 -0.147121 0 -0.147121 -0.110588 0 0 0 0 1.2755 -0.121192 0 -0.121192 0.0641724 0 0 0 0 1.25921 -0.0714702 0 -0.0714702 0.113531 0 0 0 0 1.05826 -0.0161919 0 -0.0161919 0.0812939 0 0 0 0 0.991069 0.00461454 0 0.00461454 0.102767 0 0 0 0 1.03917 -0.00319163 0 -0.00319163 0.174969 0 0 0 0 1.04452 -0.0137028 0 -0.0137028 0.231249 0 0 0 0 0.990742 -0.0239466 0 -0.0239466 0.262316 0 0 0 0 0.9524 -0.0391105 0 -0.0391105 0.299028 0 0 0 0 0.95272 -0.0604548 0 -0.0604548 0.352221 0 0 0 0 0.956687 -0.0830182 0 -0.0830182 0.407504 0 0 0 0 0.940645 -0.103941 0 -0.103941 0.454093 0 0 0 0 0.920758 -0.123092 0 -0.123092 0.498227 0 0 0 0 0.922249 -0.139674 0 -0.139674 0.551061 0 0 0 0 0.934964 -0.152679 0 -0.152679 0.608856 0 0 0 0 0.923782 -0.159659 0 -0.159659 0.656109 0 0 0 0 0.893597 -0.159135 0 -0.159135 0.693854 0 0 0 0 0.906508 -0.14075 0 -0.14075 0.749808 0 0 0 0 0.97232 -0.100892 0 -0.100892 0.831774 0 0 0 0 0.960499 -0.0474427 0 -0.0474427 0.88415 0 0 0 0 0.808723 0.0164442 0 0.0164442 0.873437 0 0 0 0 0.964977 -0.131936 0 -0.131936 -0.160815 0 0 0 0 1.26378 -0.104162 0 -0.104162 0.0303732 0 0 0 0 1.23526 -0.0548485 0 -0.0548485 0.0864155 0 0 0 0 1.02104 -0.00318192 0 -0.00318192 0.057308 0 0 0 0 0.948623 0.0152295 0 0.0152295 0.0833929 0 0 0 0 0.998322 0.00693964 0 0.00693964 0.161097 0 0 0 0 1.00494 -0.00392403 0 -0.00392403 0.220954 0 0 0 0 0.951503 -0.0150536 0 -0.0150536 0.253961 0 0 0 0 0.914153 -0.0310117 0 -0.0310117 0.292028 0 0 0 0 0.916578 -0.0526014 0 -0.0526014 0.346325 0 0 0 0 0.921952 -0.0751468 0 -0.0751468 0.401811 0 0 0 0 0.90547 -0.0962557 0 -0.0962557 0.447374 0 0 0 0 0.88448 -0.115816 0 -0.115816 0.489858 0 0 0 0 0.885748 -0.132665 0 -0.132665 0.540736 0 0 0 0 0.898538 -0.145752 0 -0.145752 0.595557 0 0 0 0 0.886504 -0.153223 0 -0.153223 0.638175 0 0 0 0 0.855333 -0.153869 0 -0.153869 0.670044 0 0 0 0 0.873163 -0.13607 0 -0.13607 0.720847 0 0 0 0 0.950199 -0.0953169 0 -0.0953169 0.797135 0 0 0 0 0.951737 -0.0417867 0 -0.0417867 0.842157 0 0 0 0 0.816082 0.0181937 0 0.0181937 0.827738 0 0 0 0 0.932935 -0.107552 0 -0.107552 -0.220662 0 0 0 0 1.24547 -0.0816098 0 -0.0816098 -0.00563442 0 0 0 0 1.20994 -0.0350816 0 -0.0350816 0.0600495 0 0 0 0 0.978623 0.0119268 0 0.0119268 0.0328583 0 0 0 0 0.901008 0.0270473 0 0.0270473 0.0634346 0 0 0 0 0.9558 0.0175226 0 0.0175226 0.147925 0 0 0 0 0.965465 0.00590847 0 0.00590847 0.212013 0 0 0 0 0.911931 -0.00621748 0 -0.00621748 0.246678 0 0 0 0 0.875515 -0.0230061 0 -0.0230061 0.285956 0 0 0 0 0.881176 -0.0448328 0 -0.0448328 0.341691 0 0 0 0 0.888784 -0.0672494 0 -0.0672494 0.397565 0 0 0 0 0.871423 -0.0883521 0 -0.0883521 0.441785 0 0 0 0 0.848609 -0.108218 0 -0.108218 0.482257 0 0 0 0 0.850054 -0.125443 0 -0.125443 0.531271 0 0 0 0 0.86361 -0.13878 0 -0.13878 0.583172 0 0 0 0 0.849266 -0.146851 0 -0.146851 0.62025 0 0 0 0 0.814115 -0.149019 0 -0.149019 0.644915 0 0 0 0 0.837162 -0.133006 0 -0.133006 0.69054 0 0 0 0 0.929028 -0.0930754 0 -0.0930754 0.761375 0 0 0 0 0.938473 -0.0391005 0 -0.0391005 0.794901 0 0 0 0 0.801027 0.0195777 0 0.0195777 0.771224 0 0 0 0 0.899141 -0.0811133 0 -0.0811133 -0.279685 0 0 0 0 1.21069 -0.0502444 0 -0.0502444 -0.0618823 0 0 0 0 1.16951 -0.00956441 0 -0.00956441 0.0180395 0 0 0 0 0.926397 0.029211 0 0.029211 -0.00111735 0 0 0 0 0.846076 0.0403821 0 0.0403821 0.0352595 0 0 0 0 0.907607 0.029382 0 0.029382 0.127658 0 0 0 0 0.922394 0.0159322 0 0.0159322 0.198525 0 0 0 0 0.870657 0.00184236 0 0.00184236 0.237278 0 0 0 0 0.836479 -0.0160308 0 -0.0160308 0.279292 0 0 0 0 0.846363 -0.0381937 0 -0.0381937 0.33779 0 0 0 0 0.85717 -0.060929 0 -0.060929 0.395753 0 0 0 0 0.839775 -0.0824839 0 -0.0824839 0.440406 0 0 0 0 0.81582 -0.102794 0 -0.102794 0.480385 0 0 0 0 0.818184 -0.120619 0 -0.120619 0.528962 0 0 0 0 0.833151 -0.134916 0 -0.134916 0.579397 0 0 0 0 0.816184 -0.144306 0 -0.144306 0.611994 0 0 0 0 0.775826 -0.148123 0 -0.148123 0.629929 0 0 0 0 0.803455 -0.134601 0 -0.134601 0.670666 0 0 0 0 0.910245 -0.0984488 0 -0.0984488 0.735922 0 0 0 0 0.926323 -0.0457035 0 -0.0457035 0.755131 0 0 0 0 0.781902 0.0186818 0 0.0186818 0.711922 0 0 0 0 0.89479 -0.0619646 0 -0.0619646 -0.324458 0 0 0 0 1.16087 -0.0137562 0 -0.0137562 -0.127703 0 0 0 0 1.10712 0.0216943 0 0.0216943 -0.0350519 0 0 0 0 0.866208 0.0480204 0 0.0480204 -0.039102 0 0 0 0 0.788267 0.054 0 0.054 0.00489185 0 0 0 0 0.854387 0.0418407 0 0.0418407 0.104011 0 0 0 0 0.87453 0.0262039 0 0.0262039 0.182057 0 0 0 0 0.827878 0.00945464 0 0.00945464 0.226684 0 0 0 0 0.79794 -0.00970901 0 -0.00970901 0.272521 0 0 0 0 0.811601 -0.0320662 0 -0.0320662 0.333875 0 0 0 0 0.825205 -0.0551337 0 -0.0551337 0.39424 0 0 0 0 0.808951 -0.0772676 0 -0.0772676 0.440393 0 0 0 0 0.785312 -0.0980333 0 -0.0980333 0.481009 0 0 0 0 0.788521 -0.116532 0 -0.116532 0.529638 0 0 0 0 0.803985 -0.132157 0 -0.132157 0.578884 0 0 0 0 0.784692 -0.143268 0 -0.143268 0.607903 0 0 0 0 0.740165 -0.14888 0 -0.14888 0.620284 0 0 0 0 0.76989 -0.138786 0 -0.138786 0.655592 0 0 0 0 0.885255 -0.109203 0 -0.109203 0.712691 0 0 0 0 0.914088 -0.0601851 0 -0.0601851 0.719088 0 0 0 0 0.787599 0.0115623 0 0.0115623 0.662281 0 0 0 0 0.886897 -0.040382 0 -0.040382 -0.368946 0 0 0 0 1.10859 0.0183256 0 0.0183256 -0.164578 0 0 0 0 1.04016 0.0503388 0 0.0503388 -0.0670421 0 0 0 0 0.807545 0.064169 0 0.064169 -0.0614374 0 0 0 0 0.735432 0.0638682 0 0.0638682 -0.0106883 0 0 0 0 0.804556 0.0508542 0 0.0508542 0.0919832 0 0 0 0 0.828575 0.0343667 0 0.0343667 0.172368 0 0 0 0 0.787383 0.0160466 0 0.0160466 0.21933 0 0 0 0 0.761891 -0.00387713 0 -0.00387713 0.266882 0 0 0 0 0.778034 -0.0257979 0 -0.0257979 0.328777 0 0 0 0 0.792916 -0.0481489 0 -0.0481489 0.388724 0 0 0 0 0.777361 -0.069794 0 -0.069794 0.433931 0 0 0 0 0.754006 -0.0903171 0 -0.0903171 0.47329 0 0 0 0 0.757098 -0.10898 0 -0.10898 0.520129 0 0 0 0 0.771536 -0.125202 0 -0.125202 0.566496 0 0 0 0 0.749192 -0.137229 0 -0.137229 0.590993 0 0 0 0 0.700293 -0.144475 0 -0.144475 0.597557 0 0 0 0 0.729433 -0.138858 0 -0.138858 0.62667 0 0 0 0 0.847996 -0.117011 0 -0.117011 0.67442 0 0 0 0 0.890844 -0.0727217 0 -0.0727217 0.671201 0 0 0 0 0.795319 -0.00113529 0 -0.00113529 0.612735 0 0 0 0 0.804076 0.00478975 0 0.00478975 -0.443708 0 0 0 0 1.04546 0.0494546 0 0.0494546 -0.181706 0 0 0 0 0.979861 0.0730938 0 0.0730938 -0.0774055 0 0 0 0 0.751455 0.0767336 0 0.0767336 -0.0704432 0 0 0 0 0.686123 0.0702025 0 0.0702025 -0.0144985 0 0 0 0 0.761699 0.0558693 0 0.0558693 0.0911379 0 0 0 0 0.790214 0.0393329 0 0.0393329 0.170732 0 0 0 0 0.752787 0.020798 0 0.020798 0.216346 0 0 0 0 0.730705 0.000912815 0 0.000912815 0.26345 0 0 0 0 0.749271 -0.0201225 0 -0.0201225 0.324504 0 0 0 0 0.765177 -0.0410642 0 -0.0410642 0.38224 0 0 0 0 0.749467 -0.0613196 0 -0.0613196 0.424385 0 0 0 0 0.725527 -0.0808548 0 -0.0808548 0.460669 0 0 0 0 0.728238 -0.0991259 0 -0.0991259 0.504533 0 0 0 0 0.741519 -0.115284 0 -0.115284 0.54724 0 0 0 0 0.714619 -0.127466 0 -0.127466 0.566196 0 0 0 0 0.658648 -0.135937 0 -0.135937 0.565791 0 0 0 0 0.685448 -0.135421 0 -0.135421 0.58843 0 0 0 0 0.80638 -0.122431 0 -0.122431 0.62756 0 0 0 0 0.849168 -0.0833857 0 -0.0833857 0.610765 0 0 0 0 0.751279 -0.0161293 0 -0.0161293 0.540282 0 0 0 0 0.669345 0.0683591 0 0.0683591 -0.538715 0 0 0 0 0.934253 0.0993436 0 0.0993436 -0.256724 0 0 0 0 0.89271 0.102908 0 0.102908 -0.127293 0 0 0 0 0.683226 0.0923496 0 0.0923496 -0.102432 0 0 0 0 0.630432 0.0807134 0 0.0807134 -0.036841 0 0 0 0 0.714687 0.0648717 0 0.0648717 0.0751712 0 0 0 0 0.751342 0.0459866 0 0.0459866 0.160861 0 0 0 0 0.721505 0.0255444 0 0.0255444 0.211818 0 0 0 0 0.705121 0.00526543 0 0.00526543 0.262747 0 0 0 0 0.727298 -0.0155485 0 -0.0155485 0.326357 0 0 0 0 0.745977 -0.0366991 0 -0.0366991 0.386182 0 0 0 0 0.732896 -0.0571022 0 -0.0571022 0.430169 0 0 0 0 0.710998 -0.0762473 0 -0.0762473 0.467726 0 0 0 0 0.714539 -0.0946063 0 -0.0946063 0.511919 0 0 0 0 0.727176 -0.112134 0 -0.112134 0.553798 0 0 0 0 0.697429 -0.125846 0 -0.125846 0.570337 0 0 0 0 0.636499 -0.134815 0 -0.134815 0.565797 0 0 0 0 0.65725 -0.138526 0 -0.138526 0.581604 0 0 0 0 0.769848 -0.138576 0 -0.138576 0.607823 0 0 0 0 0.798566 -0.110875 0 -0.110875 0.566919 0 0 0 0 0.677499 -0.0380443 0 -0.0380443 0.454583 0 0 0 0 0.614445 0.114758 0 0.114758 -0.597469 0 0 0 0 0.767074 0.167482 0 0.167482 -0.400074 0 0 0 0 0.740807 0.148009 0 0.148009 -0.238842 0 0 0 0 0.600065 0.113656 0 0.113656 -0.162755 0 0 0 0 0.574877 0.0967059 0 0.0967059 -0.0784204 0 0 0 0 0.657116 0.0807557 0 0.0807557 0.0385681 0 0 0 0 0.700832 0.0573849 0 0.0573849 0.136306 0 0 0 0 0.688611 0.0321761 0 0.0321761 0.202938 0 0 0 0 0.683784 0.010382 0 0.010382 0.264158 0 0 0 0 0.707766 -0.0108537 0 -0.0108537 0.333033 0 0 0 0 0.728572 -0.0339027 0 -0.0339027 0.398922 0 0 0 0 0.72371 -0.0564205 0 -0.0564205 0.451564 0 0 0 0 0.710268 -0.0762196 0 -0.0762196 0.496948 0 0 0 0 0.714344 -0.0954299 0 -0.0954299 0.544624 0 0 0 0 0.723311 -0.11609 0 -0.11609 0.587484 0 0 0 0 0.697478 -0.133117 0 -0.133117 0.607312 0 0 0 0 0.644964 -0.142049 0 -0.142049 0.606451 0 0 0 0 0.649915 -0.149202 0 -0.149202 0.61248 0 0 0 0 0.718056 -0.1672 0 -0.1672 0.610906 0 0 0 0 0.74348 -0.161467 0 -0.161467 0.54578 0 0 0 0 0.683076 -0.0807687 0 -0.0807687 0.402447 0 0 0 0 0.604433 0.158654 0 0.158654 -0.634819 0 0 0 0 0.612992 0.200713 0 0.200713 -0.427219 0 0 0 0 0.579886 0.167717 0 0.167717 -0.285336 0 0 0 0 0.539097 0.118671 0 0.118671 -0.179722 0 0 0 0 0.554153 0.0987873 0 0.0987873 -0.0730097 0 0 0 0 0.615943 0.0852918 0 0.0852918 0.0386251 0 0 0 0 0.653021 0.061646 0 0.061646 0.129591 0 0 0 0 0.65939 0.03504 0 0.03504 0.200015 0 0 0 0 0.667167 0.0135036 0 0.0135036 0.265849 0 0 0 0 0.686521 -0.00622676 0 -0.00622676 0.332966 0 0 0 0 0.702786 -0.0281994 0 -0.0281994 0.396018 0 0 0 0 0.705664 -0.0502094 0 -0.0502094 0.450026 0 0 0 0 0.701994 -0.0694236 0 -0.0694236 0.497162 0 0 0 0 0.702561 -0.0880044 0 -0.0880044 0.541692 0 0 0 0 0.702792 -0.108369 0 -0.108369 0.581183 0 0 0 0 0.686425 -0.125474 0 -0.125474 0.605157 0 0 0 0 0.653697 -0.134505 0 -0.134505 0.608255 0 0 0 0 0.633695 -0.144623 0 -0.144623 0.597675 0 0 0 0 0.631398 -0.170299 0 -0.170299 0.570439 0 0 0 0 0.665065 -0.185409 0 -0.185409 0.512989 0 0 0 0 0.718795 -0.156411 0 -0.156411 0.362979 0 0 0 0 0.241862 0.323645 0 0.323645 -0.821046 0 0 0 0 0.479253 0.178608 0 0.178608 -0.265402 0 0 0 0 0.51567 0.116095 0 0.116095 -0.17524 0 0 0 0 0.539254 0.0912322 0 0.0912322 -0.111573 0 0 0 0 0.586276 0.0792223 0 0.0792223 0.0101986 0 0 0 0 0.622055 0.0654079 0 0.0654079 0.109143 0 0 0 0 0.638169 0.0461291 0 0.0461291 0.165542 0 0 0 0 0.649117 0.027051 0 0.027051 0.213213 0 0 0 0 0.662606 0.0109303 0 0.0109303 0.270047 0 0 0 0 0.67454 -0.00458081 0 -0.00458081 0.32646 0 0 0 0 0.681286 -0.0212624 0 -0.0212624 0.373871 0 0 0 0 0.683311 -0.038129 0 -0.038129 0.41331 0 0 0 0 0.681875 -0.053891 0 -0.053891 0.447633 0 0 0 0 0.678494 -0.0683343 0 -0.06