<?xml version="1.0"?> 
<VTKFile type="StructuredGrid" version="0.1"> 
<StructuredGrid WholeExtent="0 20 0 20 0 0"> 
<Piece Extent="0 20 0 20 0 0"> 
<PointData>
<DataArray type="Float32" Name="displacement" format="ascii" NumberOfComponents="3"> 
-0.0002279 0 0 -0.000226251 -6.46112e-06 0 -0.000223751 -1.3106e-05 0 -0.000220202 -1.99664e-05 0 -0.00021545 -2.70086e-05 0 -0.000209391 -3.41707e-05 0 -0.000201973 -4.13905e-05 0 -0.000193197 -4.86152e-05 0 -0.000183112 -5.5803e-05 0 -0.000171807 -6.29198e-05 0 -0.000159419 -6.99164e-05 0 -0.000146252 -7.70521e-05 0 -0.000132035 -8.40594e-05 0 -0.000116931 -9.0807e-05 0 -0.000101091 -9.72043e-05 0 -8.46791e-05 -0.000103184 0 -6.78722e-05 -0.000108706 0 -5.08516e-05 -0.000113756 0 -3.37864e-05 -0.000118345 0 -1.68104e-05 -0.000122489 0 0 -0.000126152 0 -0.000232176 0 0 -0.000230357 -4.42148e-06 0 -0.000226911 -8.88098e-06 0 -0.000221671 -1.34212e-05 0 -0.000214586 -1.81778e-05 0 -0.000205754 -2.3335e-05 0 -0.000195398 -2.9071e-05 0 -0.000183818 -3.55129e-05 0 -0.000171338 -4.27113e-05 0 -0.000158264 -5.06357e-05 0 -0.00014486 -5.91899e-05 0 -0.000131633 -6.86603e-05 0 -0.000118037 -7.85153e-05 0 -0.000104156 -8.85078e-05 0 -9.00361e-05 -9.83324e-05 0 -7.56804e-05 -0.000107665 0 -6.10583e-05 -0.000116205 0 -4.61375e-05 -0.000123723 0 -3.09241e-05 -0.000130094 0 -1.5496e-05 -0.000135297 0 0 -0.00013939 0 -0.000233838 0 0 -0.000232074 -2.92527e-06 0 -0.000228177 -6.17341e-06 0 -0.000222213 -9.90915e-06 0 -0.000214378 -1.43441e-05 0 -0.000204978 -1.96641e-05 0 -0.00019437 -2.59677e-05 0 -0.000182904 -3.32438e-05 0 -0.00017089 -4.1385e-05 0 -0.000158587 -5.02143e-05 0 -0.00014621 -5.95137e-05 0 -0.000132244 -6.86471e-05 0 -0.000117772 -7.84271e-05 0 -0.000102994 -8.86776e-05 0 -8.80895e-05 -9.91458e-05 0 -7.31976e-05 -0.000109503 0 -5.8394e-05 -0.000119365 0 -4.36896e-05 -0.000128332 0 -2.90577e-05 -0.000136051 0 -1.44826e-05 -0.000142272 0 0 -0.00014689 0 -0.000234994 0 0 -0.000233563 -2.11854e-06 0 -0.000229766 -4.93073e-06 0 -0.000223873 -8.69452e-06 0 -0.000216264 -1.3612e-05 0 -0.000207351 -1.97705e-05 0 -0.000197516 -2.71145e-05 0 -0.00018707 -3.54658e-05 0 -0.000176255 -4.45721e-05 0 -0.000165251 -5.41526e-05 0 -0.00015421 -6.39279e-05 0 -0.000139244 -7.22214e-05 0 -0.000123533 -8.12366e-05 0 -0.000107351 -9.08865e-05 0 -9.0993e-05 -0.000101012 0 -7.47445e-05 -0.000111354 0 -5.88378e-05 -0.000121541 0 -4.34116e-05 -0.000131108 0 -2.84981e-05 -0.000139552 0 -1.40511e-05 -0.00014643 0 0 -0.000151435 0 -0.000236849 0 0 -0.000235988 -1.96292e-06 0 -0.000232744 -4.89813e-06 0 -0.000227475 -9.08039e-06 0 -0.0002206 -1.46484e-05 0 -0.000212527 -2.15814e-05 0 -0.000203602 -2.97183e-05 0 -0.000194101 -3.88073e-05 0 -0.00018424 -4.85597e-05 0 -0.000174193 -5.86899e-05 0 -0.000164093 -6.89424e-05 0 -0.000148057 -7.6801e-05 0 -0.000131224 -8.53546e-05 0 -0.000113836 -9.45519e-05 0 -9.61946e-05 -0.000104272 0 -7.86304e-05 -0.000114303 0 -6.14625e-05 -0.000124323 0 -4.4943e-05 -0.000133895 0 -2.92074e-05 -0.000142497 0 -1.42593e-05 -0.000149607 0 0 -0.000154795 0 -0.000239699 0 0 -0.000239525 -2.23685e-06 0 -0.00023705 -5.62123e-06 0 -0.00023264 -1.04081e-05 0 -0.000226685 -1.66679e-05 0 -0.000219547 -2.42993e-05 0 -0.000211533 -3.3086e-05 0 -0.000202902 -4.27575e-05 0 -0.000193883 -5.30347e-05 0 -0.000184668 -6.36553e-05 0 -0.000175402 -7.43941e-05 0 -0.000158203 -8.1923e-05 0 -0.000140222 -9.01227e-05 0 -0.000121661 -9.89441e-05 0 -0.00010279 -0.00010827 0 -8.39364e-05 -0.000117908 0 -6.54524e-05 -0.000127578 0 -4.76651e-05 -0.000136893 0 -3.08037e-05 -0.000145367 0 -1.49439e-05 -0.00015247 0 0 -0.000157722 0 -0.000243731 0 0 -0.00024425 -2.73712e-06 0 -0.000242556 -6.69846e-06 0 -0.000238981 -1.21185e-05 0 -0.000233879 -1.90321e-05 0 -0.000227587 -2.73082e-05 0 -0.000220406 -3.67172e-05 0 -0.000212615 -4.69869e-05 0 -0.00020446 -5.78381e-05 0 -0.000196151 -6.9003e-05 0 -0.000187852 -8.02348e-05 0 -0.000169374 -8.72847e-05 0 -0.000150102 -9.50534e-05 0 -0.000130249 -0.000103483 0 -0.000110081 -0.000112451 0 -8.99179e-05 -0.000121761 0 -7.0118e-05 -0.000131133 0 -5.10322e-05 -0.000140198 0 -3.29345e-05 -0.0001485 0 -1.5946e-05 -0.00015553 0 0 -0.000160812 0 -0.000248838 0 0 -0.000250023 -3.36186e-06 0 -0.000249067 -7.9585e-06 0 -0.000246261 -1.40115e-05 0 -0.000241926 -2.15483e-05 0 -0.000236394 -3.0442e-05 0 -0.000229989 -4.0471e-05 0 -0.000223013 -5.13633e-05 0 -0.000215732 -6.28268e-05 0 -0.000208361 -7.45692e-05 0 -0.000201066 -8.63027e-05 0 -0.000181243 -9.28207e-05 0 -0.00016059 -0.00010012 0 -0.000139359 -0.000108144 0 -0.000117831 -0.000116774 0 -9.63293e-05 -0.000125802 0 -7.52055e-05 -0.000134933 0 -5.48054e-05 -0.000143791 0 -3.54102e-05 -0.000151933 0 -1.7159e-05 -0.000158884 0 0 -0.000164198 0 -0.000254846 0 0 -0.000256651 -4.03624e-06 0 -0.000256379 -9.29037e-06 0 -0.000254284 -1.59792e-05 0 -0.000250668 -2.41364e-05 0 -0.000245862 -3.36472e-05 0 -0.000240209 -4.42962e-05 0 -0.000234028 -5.58053e-05 0 -0.000227586 -6.78667e-05 0 -0.000221085 -8.01694e-05 0 -0.000214664 -9.2416e-05 0 -0.000193486 -9.85226e-05 0 -0.000171456 -0.000105401 0 -0.000148836 -0.000113032 0 -0.000125923 -0.000121316 0 -0.000103052 -0.000130056 0 -8.05732e-05 -0.000138951 0 -5.88263e-05 -0.000147621 0 -3.80857e-05 -0.000155628 0 -1.84917e-05 -0.000162523 0 0 -0.000167897 0 -0.000261609 0 0 -0.000263982 -4.71993e-06 0 -0.000264337 -1.06345e-05 0 -0.000262902 -1.79618e-05 0 -0.000259968 -2.67455e-05 0 -0.000255871 -3.68787e-05 0 -0.000250956 -4.81428e-05 0 -0.000245539 -6.02478e-05 0 -0.000239874 -7.28736e-05 0 -0.000234142 -8.57068e-05 0 -0.000228439 -9.84789e-05 0 -0.000205919 -0.000104332 0 -0.000182546 -0.000110874 0 -0.00015856 -0.000118143 0 -0.000134262 -0.00012608 0 -0.000109999 -0.000134514 0 -8.61325e-05 -0.000143164 0 -6.30034e-05 -0.000151653 0 -4.08788e-05 -0.000159553 0 -1.98921e-05 -0.000166431 0 0 -0.000171901 0 -0.000269015 0 0 -0.000271909 -5.40685e-06 0 -0.000272836 -1.1982e-05 0 -0.000272011 -1.99465e-05 0 -0.000269719 -2.93534e-05 0 -0.000266294 -4.00999e-05 0 -0.000262077 -5.19624e-05 0 -0.000257373 -6.46413e-05 0 -0.000252423 -7.78116e-05 0 -0.000247391 -9.11692e-05 0 -0.000242353 -0.000104478 0 -0.000218483 -0.000110143 0 -0.000193778 -0.000116417 0 -0.000168443 -0.000123374 0 -0.000142772 -0.000130991 0 -0.000117116 -0.000139133 0 -9.18467e-05 -0.000147545 0 -6.73103e-05 -0.000155868 0 -4.37689e-05 -0.000163686 0 -2.13472e-05 -0.000170579 0 0 -0.000176181 0 -0.00027696 0 0 -0.000280331 -6.09258e-06 0 -0.00028178 -1.33257e-05 0 -0.000281516 -2.19219e-05 0 -0.000279819 -3.19393e-05 0 -0.000277015 -4.32781e-05 0 -0.000273438 -5.57139e-05 0 -0.000269385 -6.89457e-05 0 -0.000265087 -8.26533e-05 0 -0.000260713 -9.65476e-05 0 -0.000256368 -0.000110403 0 -0.000231131 -0.000115872 0 -0.000205085 -0.000121928 0 -0.000178414 -0.000128635 0 -0.000151389 -0.000135986 0 -0.000124354 -0.000143872 0 -9.76832e-05 -0.00015207 0 -7.17248e-05 -0.000160246 0 -4.67395e-05 -0.000168003 0 -2.2847e-05 -0.00017494 0 0 -0.000180704 0 -0.00028537 0 0 -0.000289172 -6.77328e-06 0 -0.000291096 -1.46569e-05 0 -0.000291348 -2.38731e-05 0 -0.000290198 -3.4484e-05 0 -0.000287966 -4.6394e-05 0 -0.000284976 -5.9382e-05 0 -0.000281515 -7.31518e-05 0 -0.000277821 -8.73935e-05 0 -0.000274075 -0.000101832 0 -0.000270428 -0.000116237 0 -0.000243824 -0.000121524 0 -0.000216438 -0.000127401 0 -0.000188442 -0.000133907 0 -0.000160082 -0.000141039 0 -0.000131684 -0.000148707 0 -0.000103617 -0.000156717 0 -7.62284e-05 -0.000164765 0 -4.9779e-05 -0.000172483 0 -2.43856e-05 -0.00017949 0 0 -0.000185446 0 -0.000294178 0 0 -0.000298367 -7.44534e-06 0 -0.000300721 -1.59666e-05 0 -0.000301441 -2.57851e-05 0 -0.000300796 -3.69689e-05 0 -0.000299093 -4.94318e-05 0 -0.000296644 -6.29581e-05 0 -0.000293732 -7.7258e-05 0 -0.000290604 -9.20321e-05 0 -0.000287461 -0.000107013 0 -0.000284473 -0.000121966 0 -0.000256529 -0.000127124 0 -0.000227819 -0.000132851 0 -0.000198509 -0.000139187 0 -0.000168828 -0.000146134 0 -0.000139081 -0.000153616 0 -0.000109625 -0.000161462 0 -8.08043e-05 -0.000169404 0 -5.28772e-05 -0.000177103 0 -2.59587e-05 -0.000184203 0 0 -0.000190383 0 -0.00030333 0 0 -0.00030786 -8.10691e-06 0 -0.000310599 -1.72494e-05 0 -0.000311745 -2.76492e-05 0 -0.000311564 -3.93853e-05 0 -0.000310351 -5.2384e-05 0 -0.000308401 -6.64359e-05 0 -0.000305999 -8.12582e-05 0 -0.000303406 -9.656e-05 0 -0.00030084 -0.000112074 0 -0.000298458 -0.000127568 0 -0.000269209 -0.000132664 0 -0.000239204 -0.000138271 0 -0.0002086 -0.000144465 0 -0.000177614 -0.000151256 0 -0.000146533 -0.00015858 0 -0.000115698 -0.000166289 0 -8.54458e-05 -0.000174144 0 -5.60306e-05 -0.000181844 0 -2.75649e-05 -0.000189062 0 0 -0.000195496 0 -0.000312782 0 0 -0.00031761 -8.75793e-06 0 -0.000320685 -1.85031e-05 0 -0.000322219 -2.94634e-05 0 -0.000322467 -4.17335e-05 0 -0.000321704 -5.52505e-05 0 -0.00032021 -6.98115e-05 0 -0.000318279 -8.51424e-05 0 -0.000316185 -0.00010096 0 -0.000314162 -0.000116995 0 -0.000312354 -0.000133023 0 -0.00028183 -0.000138107 0 -0.000250567 -0.000143636 0 -0.0002187 -0.000149721 0 -0.000186435 -0.000156388 0 -0.00015404 -0.000163586 0 -0.000121838 -0.000171183 0 -9.01561e-05 -0.000178973 0 -5.92419e-05 -0.000186692 0 -2.92059e-05 -0.000194052 0 0 -0.00020077 0 -0.000322494 0 0 -0.000327576 -9.39765e-06 0 -0.00033094 -1.97259e-05 0 -0.000332824 -3.12268e-05 0 -0.00033347 -4.40139e-05 0 -0.000333118 -5.80298e-05 0 -0.000332038 -7.30788e-05 0 -0.000330535 -8.88998e-05 0 -0.000328904 -0.000105216 0 -0.000327385 -0.000121762 0 -0.000326134 -0.000138315 0 -0.000294363 -0.000143423 0 -0.000261882 -0.000148924 0 -0.000228796 -0.000154939 0 -0.000195287 -0.000161516 0 -0.000161604 -0.000168619 0 -0.000128051 -0.000176132 0 -9.494e-05 -0.000183877 0 -6.25152e-05 -0.000191636 0 -3.08842e-05 -0.00019916 0 0 -0.000206191 0 -0.000332441 0 0 -0.000337724 -1.00225e-05 0 -0.000341333 -2.09165e-05 0 -0.000343536 -3.29422e-05 0 -0.000344546 -4.62251e-05 0 -0.000344565 -6.07121e-05 0 -0.000343859 -7.62241e-05 0 -0.000342748 -9.25178e-05 0 -0.000341544 -0.000109324 0 -0.000340501 -0.000126381 0 -0.00033979 -0.000143465 0 -0.000306792 -0.000148611 0 -0.000273132 -0.000154121 0 -0.00023887 -0.000160104 0 -0.000204157 -0.000166625 0 -0.00016922 -0.000173665 0 -0.000134339 -0.000181123 0 -9.98066e-05 -0.000188849 0 -6.58596e-05 -0.000196667 0 -3.26051e-05 -0.000204378 0 0 -0.000211754 0 -0.000342601 0 0 -0.000348022 -1.0628e-05 0 -0.000351836 -2.20743e-05 0 -0.000354332 -3.46136e-05 0 -0.000355671 -4.83646e-05 0 -0.000356022 -6.32859e-05 0 -0.000355651 -7.92318e-05 0 -0.000354897 -9.59838e-05 0 -0.000354092 -0.000113282 0 -0.000353507 -0.000130864 0 -0.000353319 -0.000148497 0 -0.000319105 -0.000153679 0 -0.000284296 -0.000159218 0 -0.000248903 -0.000165202 0 -0.000213032 -0.0001717 0 -0.000176883 -0.00017871 0 -0.000140705 -0.000186146 0 -0.000104766 -0.000193879 0 -6.92852e-05 -0.000201779 0 -3.43743e-05 -0.000209701 0 0 -0.000217454 0 -0.000352947 0 0 -0.000358448 -1.12034e-05 0 -0.00036243 -2.32067e-05 0 -0.000365188 -3.62476e-05 0 -0.00036682 -5.0426e-05 0 -0.000367464 -6.57364e-05 0 -0.000367395 -8.20887e-05 0 -0.000366972 -9.92937e-05 0 -0.000366544 -0.000117099 0 -0.000366401 -0.000135231 0 -0.000366703 -0.000153423 0 -0.00033129 -0.000158634 0 -0.000295362 -0.00016421 0 -0.000258879 -0.000170222 0 -0.000221901 -0.000176729 0 -0.000184586 -0.00018374 0 -0.000147153 -0.000191186 0 -0.000109829 -0.000198957 0 -7.28071e-05 -0.000206965 0 -3.61994e-05 -0.000215124 0 0 -0.00022329 0 -0.000363451 0 0 -0.000368987 -1.17319e-05 0 -0.000373103 -2.43291e-05 0 -0.000376082 -3.78537e-05 0 -0.000377965 -5.23986e-05 0 -0.00037887 -6.80459e-05 0 -0.000379081 -8.47833e-05 0 -0.000378968 -0.000102452 0 -0.000378903 -0.000120798 0 -0.000379179 -0.000139508 0 -0.000379917 -0.000158246 0 -0.000343333 -0.000163483 0 -0.000306318 -0.000169097 0 -0.000268789 -0.000175153 0 -0.000230752 -0.000181696 0 -0.000192322 -0.00018874 0 -0.000153683 -0.000196228 0 -0.000115011 -0.000204073 0 -7.64451e-05 -0.000212225 0 -3.80899e-05 -0.000220653 0 0 -0.000229264 0 </DataArray> 
<DataArray type="Float32" Name="stress" format="ascii" NumberOfComponents="9"> 
0.430365 0.706054 0 0.706054 -9.76723 0 0 0 0 0.534356 0.029993 0 0.029993 -9.48198 0 0 0 0 0.2932 -0.569971 0 -0.569971 -9.12276 0 0 0 0 -0.124596 -1.05358 0 -1.05358 -8.44592 0 0 0 0 -0.541495 -1.31415 0 -1.31415 -7.3628 0 0 0 0 -0.750743 -1.25932 0 -1.25932 -5.92436 0 0 0 0 -0.557711 -0.858651 0 -0.858651 -4.27175 0 0 0 0 0.160206 -0.156992 0 -0.156992 -2.58918 0 0 0 0 1.42399 0.743864 0 0.743864 -1.05663 0 0 0 0 3.16063 1.7184 0 1.7184 0.187929 0 0 0 0 4.74147 2.48787 0 2.48787 0.656537 0 0 0 0 7.02367 3.38395 0 3.38395 1.31284 0 0 0 0 9.62869 4.09689 0 4.09689 1.68742 0 0 0 0 12.4252 4.53576 0 4.53576 1.63604 0 0 0 0 15.2374 4.60134 0 4.60134 1.15868 0 0 0 0 17.8747 4.23562 0 4.23562 0.35963 0 0 0 0 20.1705 3.44753 0 3.44753 -0.568883 0 0 0 0 22.0248 2.31769 0 2.31769 -1.39332 0 0 0 0 23.4319 0.973187 0 0.973187 -1.90667 0 0 0 0 24.48 -0.455568 0 -0.455568 -1.97862 0 0 0 0 25.273 -1.83859 0 -1.83859 -1.65982 0 0 0 0 -0.560884 0.508401 0 0.508401 -5.77144 0 0 0 0 -0.199622 0.448831 0 0.448831 -5.50529 0 0 0 0 0.209754 0.519286 0 0.519286 -5.02555 0 0 0 0 0.771725 0.712482 0 0.712482 -4.46503 0 0 0 0 1.53649 0.972859 0 0.972859 -3.93539 0 0 0 0 2.49573 1.23475 0 1.23475 -3.5048 0 0 0 0 3.59749 1.44149 0 1.44149 -3.20276 0 0 0 0 4.76804 1.55394 0 1.55394 -3.0242 0 0 0 0 5.94668 1.55918 0 1.55918 -2.92854 0 0 0 0 7.0977 1.46501 0 1.46501 -2.86193 0 0 0 0 8.37898 1.35359 0 1.35359 -2.63158 0 0 0 0 9.23123 1.22735 0 1.22735 -2.31517 0 0 0 0 10.1934 1.10263 0 1.10263 -1.9281 0 0 0 0 11.2815 0.98589 0 0.98589 -1.47286 0 0 0 0 12.5191 0.870959 0 0.870959 -0.975746 0 0 0 0 13.9024 0.731272 0 0.731272 -0.482245 0 0 0 0 15.3828 0.522158 0 0.522158 -0.0385707 0 0 0 0 16.8727 0.195551 0 0.195551 0.337844 0 0 0 0 18.2452 -0.286581 0 -0.286581 0.664517 0 0 0 0 19.3491 -0.929456 0 -0.929456 0.987687 0 0 0 0 20.0815 -1.69709 0 -1.69709 1.35531 0 0 0 0 -0.595383 0.284301 0 0.284301 -3.21841 0 0 0 0 -0.175482 0.61236 0 0.61236 -3.25982 0 0 0 0 0.440553 0.981205 0 0.981205 -3.22558 0 0 0 0 1.30586 1.35792 0 1.35792 -3.21893 0 0 0 0 2.42203 1.67671 0 1.67671 -3.28622 0 0 0 0 3.73543 1.87893 0 1.87893 -3.41082 0 0 0 0 5.14692 1.92785 0 1.92785 -3.5537 0 0 0 0 6.54735 1.8156 0 1.8156 -3.6644 0 0 0 0 7.85191 1.56235 0 1.56235 -3.6913 0 0 0 0 9.00536 1.20273 0 1.20273 -3.59959 0 0 0 0 9.72393 0.673781 0 0.673781 -3.60237 0 0 0 0 10.4377 0.330243 0 0.330243 -3.16156 0 0 0 0 11.1172 0.00918546 0 0.00918546 -2.55141 0 0 0 0 11.7826 -0.268585 0 -0.268585 -1.78612 0 0 0 0 12.4578 -0.485217 0 -0.485217 -0.913221 0 0 0 0 13.169 -0.638263 0 -0.638263 -0.0042488 0 0 0 0 13.9257 -0.749011 0 -0.749011 0.855232 0 0 0 0 14.713 -0.855732 0 -0.855732 1.5985 0 0 0 0 15.4832 -1.00221 0 -1.00221 2.19773 0 0 0 0 16.1379 -1.22317 0 -1.22317 2.65706 0 0 0 0 16.5695 -1.52596 0 -1.52596 3.01831 0 0 0 0 0.40221 0.0978651 0 0.0978651 -1.52799 0 0 0 0 0.866094 0.653067 0 0.653067 -1.80251 0 0 0 0 1.61957 1.13425 0 1.13425 -2.11543 0 0 0 0 2.60655 1.49138 0 1.49138 -2.48836 0 0 0 0 3.74313 1.68903 0 1.68903 -2.89168 0 0 0 0 4.94208 1.72122 0 1.72122 -3.2581 0 0 0 0 6.12121 1.60655 0 1.60655 -3.52715 0 0 0 0 7.22433 1.3819 0 1.3819 -3.65267 0 0 0 0 8.22183 1.08998 0 1.08998 -3.61596 0 0 0 0 9.09323 0.766175 0 0.766175 -3.431 0 0 0 0 9.92518 0.479569 0 0.479569 -3.02686 0 0 0 0 10.5949 0.215574 0 0.215574 -2.78734 0 0 0 0 11.2196 -0.0930349 0 -0.0930349 -2.39821 0 0 0 0 11.7755 -0.425975 0 -0.425975 -1.86408 0 0 0 0 12.2476 -0.753089 0 -0.753089 -1.18687 0 0 0 0 12.6456 -1.037 0 -1.037 -0.382538 0 0 0 0 12.9925 -1.24726 0 -1.24726 0.499989 0 0 0 0 13.3121 -1.36971 0 -1.36971 1.3842 0 0 0 0 13.6213 -1.41017 0 -1.41017 2.18539 0 0 0 0 13.8994 -1.39975 0 -1.39975 2.82094 0 0 0 0 14.08 -1.37613 0 -1.37613 3.24162 0 0 0 0 1.40027 -0.0565638 0 -0.0565638 -0.681101 0 0 0 0 1.86473 0.578083 0 0.578083 -1.07477 0 0 0 0 2.6617 1.0806 0 1.0806 -1.54158 0 0 0 0 3.68266 1.40505 0 1.40505 -2.04309 0 0 0 0 4.80525 1.54006 0 1.54006 -2.51247 0 0 0 0 5.92165 1.5056 0 1.5056 -2.88771 0 0 0 0 6.95172 1.34033 0 1.34033 -3.1319 0 0 0 0 7.85651 1.09229 0 1.09229 -3.22819 0 0 0 0 8.62681 0.805739 0 0.805739 -3.1856 0 0 0 0 9.26539 0.513361 0 0.513361 -3.03435 0 0 0 0 9.90472 0.287886 0 0.287886 -2.70099 0 0 0 0 10.417 0.0692509 0 0.0692509 -2.61399 0 0 0 0 10.9362 -0.211813 0 -0.211813 -2.38639 0 0 0 0 11.4191 -0.537221 0 -0.537221 -1.99742 0 0 0 0 11.8292 -0.877522 0 -0.877522 -1.42764 0 0 0 0 12.1458 -1.18979 0 -1.18979 -0.67675 0 0 0 0 12.3657 -1.42779 0 -1.42779 0.215343 0 0 0 0 12.4981 -1.55497 0 -1.55497 1.16215 0 0 0 0 12.5693 -1.55281 0 -1.55281 2.04921 0 0 0 0 12.605 -1.43486 0 -1.43486 2.75478 0 0 0 0 12.5988 -1.24158 0 -1.24158 3.18318 0 0 0 0 2.40761 -0.175454 0 -0.175454 -0.252832 0 0 0 0 2.81474 0.446883 0 0.446883 -0.702123 0 0 0 0 3.52897 0.915925 0 0.915925 -1.23808 0 0 0 0 4.44013 1.20054 0 1.20054 -1.78088 0 0 0 0 5.43933 1.30798 0 1.30798 -2.24453 0 0 0 0 6.43423 1.26887 0 1.26887 -2.58087 0 0 0 0 7.35901 1.12181 0 1.12181 -2.77672 0 0 0 0 8.17752 0.905626 0 0.905626 -2.83995 0 0 0 0 8.87328 0.65212 0 0.65212 -2.79572 0 0 0 0 9.44537 0.385119 0 0.385119 -2.67406 0 0 0 0 9.85966 0.101244 0 0.101244 -2.5535 0 0 0 0 10.2661 -0.101913 0 -0.101913 -2.44888 0 0 0 0 10.7006 -0.346581 0 -0.346581 -2.23124 0 0 0 0 11.1275 -0.624874 0 -0.624874 -1.86894 0 0 0 0 11.5044 -0.919027 0 -0.919027 -1.34745 0 0 0 0 11.7894 -1.1986 0 -1.1986 -0.669968 0 0 0 0 11.9547 -1.42272 0 -1.42272 0.132761 0 0 0 0 11.9906 -1.54914 0 -1.54914 0.991301 0 0 0 0 11.92 -1.54323 0 -1.54323 1.80527 0 0 0 0 11.7962 -1.3962 0 -1.3962 2.45783 0 0 0 0 11.664 -1.13641 0 -1.13641 2.83909 0 0 0 0 3.36054 -0.262367 0 -0.262367 -0.0201458 0 0 0 0 3.69909 0.314419 0 0.314419 -0.469622 0 0 0 0 4.29387 0.737842 0 0.737842 -1.01505 0 0 0 0 5.04929 0.987638 0 0.987638 -1.56015 0 0 0 0 5.88102 1.07932 0 1.07932 -2.01728 0 0 0 0 6.72231 1.04559 0 1.04559 -2.34477 0 0 0 0 7.52847 0.921284 0 0.921284 -2.53401 0 0 0 0 8.26995 0.73654 0 0.73654 -2.59591 0 0 0 0 8.92487 0.514248 0 0.514248 -2.55387 0 0 0 0 9.48265 0.271697 0 0.271697 -2.43067 0 0 0 0 9.85655 -0.0166914 0 -0.0166914 -2.32175 0 0 0 0 10.2345 -0.206651 0 -0.206651 -2.17276 0 0 0 0 10.6125 -0.420736 0 -0.420736 -1.94108 0 0 0 0 10.9753 -0.659047 0 -0.659047 -1.60301 0 0 0 0 11.2892 -0.911809 0 -0.911809 -1.1503 0 0 0 0 11.5138 -1.15785 0 -1.15785 -0.584846 0 0 0 0 11.6183 -1.36302 0 -1.36302 0.0770591 0 0 0 0 11.5887 -1.48506 0 -1.48506 0.791328 0 0 0 0 11.4439 -1.48286 0 -1.48286 1.4814 0 0 0 0 11.2451 -1.33515 0 -1.33515 2.04497 0 0 0 0 11.0605 -1.05995 0 -1.05995 2.3704 0 0 0 0 4.12318 -0.329487 0 -0.329487 0.0715824 0 0 0 0 4.41248 0.196096 0 0.196096 -0.342273 0 0 0 0 4.92411 0.582336 0 0.582336 -0.850207 0 0 0 0 5.57884 0.812551 0 0.812551 -1.3578 0 0 0 0 6.30555 0.899758 0 0.899758 -1.78842 0 0 0 0 7.04611 0.871112 0 0.871112 -2.10608 0 0 0 0 7.76027 0.756692 0 0.756692 -2.30041 0 0 0 0 8.41885 0.583757 0 0.583757 -2.37602 0 0 0 0 9.0001 0.375575 0 0.375575 -2.34689 0 0 0 0 9.4908 0.151292 0 0.151292 -2.22884 0 0 0 0 9.87044 -0.0788827 0 -0.0788827 -2.03438 0 0 0 0 10.2184 -0.249888 0 -0.249888 -1.93719 0 0 0 0 10.5451 -0.448297 0 -0.448297 -1.74985 0 0 0 0 10.8449 -0.670014 0 -0.670014 -1.46451 0 0 0 0 11.095 -0.903166 0 -0.903166 -1.07485 0 0 0 0 11.2656 -1.12705 0 -1.12705 -0.582953 0 0 0 0 11.3311 -1.31128 0 -1.31128 -0.00464231 0 0 0 0 11.2774 -1.4182 0 -1.4182 0.621194 0 0 0 0 11.1163 -1.41054 0 -1.41054 1.22604 0 0 0 0 10.9037 -1.26703 0 -1.26703 1.71861 0 0 0 0 10.7135 -1.00116 0 -1.00116 1.99829 0 0 0 0 4.73649 -0.382219 0 -0.382219 0.10384 0 0 0 0 4.98034 0.0882297 0 0.0882297 -0.272546 0 0 0 0 5.4226 0.439233 0 0.439233 -0.736164 0 0 0 0 6.00479 0.654873 0 0.654873 -1.20008 0 0 0 0 6.66748 0.742165 0 0.742165 -1.59704 0 0 0 0 7.35337 0.720358 0 0.720358 -1.89394 0 0 0 0 8.01339 0.613761 0 0.613761 -2.08014 0 0 0 0 8.60863 0.448135 0 0.448135 -2.15752 0 0 0 0 9.11333 0.249816 0 0.249816 -2.13623 0 0 0 0 9.51252 0.0430975 0 0.0430975 -2.03296 0 0 0 0 9.85901 -0.121078 0 -0.121078 -1.80688 0 0 0 0 10.1534 -0.266512 0 -0.266512 -1.80357 0 0 0 0 10.4413 -0.452147 0 -0.452147 -1.67829 0 0 0 0 10.7035 -0.663283 0 -0.663283 -1.43773 0 0 0 0 10.9183 -0.882646 0 -0.882646 -1.08125 0 0 0 0 11.0608 -1.08759 0 -1.08759 -0.619934 0 0 0 0 11.1081 -1.25091 0 -1.25091 -0.0822199 0 0 0 0 11.0466 -1.34149 0 -1.34149 0.485658 0 0 0 0 10.8855 -1.32931 0 -1.32931 1.0184 0 0 0 0 10.6757 -1.19744 0 -1.19744 1.43946 0 0 0 0 10.4905 -0.957236 0 -0.957236 1.6706 0 0 0 0 5.25723 -0.423915 0 -0.423915 0.124633 0 0 0 0 5.46538 -0.00044149 0 -0.00044149 -0.217559 0 0 0 0 5.85128 0.319777 0 0.319777 -0.641725 0 0 0 0 6.37087 0.520355 0 0.520355 -1.07113 0 0 0 0 6.97378 0.603742 0 0.603742 -1.44301 0 0 0 0 7.60595 0.585054 0 0.585054 -1.72212 0 0 0 0 8.21539 0.486114 0 0.486114 -1.8957 0 0 0 0 8.75908 0.332299 0 0.332299 -1.96475 0 0 0 0 9.21043 0.150936 0 0.150936 -1.94067 0 0 0 0 9.55663 -0.0327403 0 -0.0327403 -1.84555 0 0 0 0 9.81914 -0.184066 0 -0.184066 -1.69601 0 0 0 0 10.0743 -0.300104 0 -0.300104 -1.70741 0 0 0 0 10.3431 -0.462051 0 -0.462051 -1.60772 0 0 0 0 10.5896 -0.653524 0 -0.653524 -1.39454 0 0 0 0 10.7874 -0.85564 0 -0.85564 -1.06748 0 0 0 0 10.9122 -1.04443 0 -1.04443 -0.640254 0 0 0 0 10.9442 -1.19323 0 -1.19323 -0.14597 0 0 0 0 10.8743 -1.27374 0 -1.27374 0.366985 0 0 0 0 10.7151 -1.26028 0 -1.26028 0.837716 0 0 0 0 10.5145 -1.14007 0 -1.14007 1.20046 0 0 0 0 10.3397 -0.924149 0 -0.924149 1.39291 0 0 0 0 5.69147 -0.458516 0 -0.458516 0.134078 0 0 0 0 5.87343 -0.0738607 0 -0.0738607 -0.176765 0 0 0 0 6.21482 0.219938 0 0.219938 -0.565742 0 0 0 0 6.68074 0.405817 0 0.405817 -0.965912 0 0 0 0 7.2257 0.48281 0 0.48281 -1.31775 0 0 0 0 7.7987 0.46411 0 0.46411 -1.58379 0 0 0 0 8.35062 0.371524 0 0.371524 -1.74846 0 0 0 0 8.8415 0.23106 0 0.23106 -1.8116 0 0 0 0 9.24945 0.0694649 0 0.0694649 -1.78607 0 0 0 0 9.56923 -0.0907714 0 -0.0907714 -1.69739 0 0 0 0 9.78466 -0.248461 0 -0.248461 -1.61474 0 0 0 0 10.0226 -0.340395 0 -0.340395 -1.5881 0 0 0 0 10.2758 -0.47485 0 -0.47485 -1.49684 0 0 0 0 10.5092 -0.642823 0 -0.642823 -1.31182 0 0 0 0 10.6929 -0.826813 0 -0.826813 -1.02486 0 0 0 0 10.8025 -1.00211 0 -1.00211 -0.644118 0 0 0 0 10.8216 -1.14087 0 -1.14087 -0.199699 0 0 0 0 10.7456 -1.21531 0 -1.21531 0.261201 0 0 0 0 10.591 -1.20233 0 -1.20233 0.680487 0 0 0 0 10.4033 -1.09291 0 -1.09291 0.998082 0 0 0 0 10.2419 -0.89854 0 -0.89854 1.16157 0 0 0 0 6.05782 -0.488178 0 -0.488178 0.137365 0 0 0 0 6.21884 -0.136159 0 -0.136159 -0.146196 0 0 0 0 6.52403 0.134251 0 0.134251 -0.504416 0 0 0 0 6.9448 0.306205 0 0.306205 -0.877404 0 0 0 0 7.43922 0.37683 0 0.37683 -1.20881 0 0 0 0 7.95807 0.358091 0 0.358091 -1.4618 0 0 0 0 8.45534 0.271802 0 0.271802 -1.62008 0 0 0 0 8.89599 0.143874 0 0.143874 -1.68275 0 0 0 0 9.26312 -0.00103281 0 -0.00103281 -1.66339 0 0 0 0 9.5569 -0.144995 0 -0.144995 -1.58788 0 0 0 0 9.77485 -0.295063 0 -0.295063 -1.50103 0 0 0 0 9.99851 -0.375894 0 -0.375894 -1.46159 0 0 0 0 10.2282 -0.489939 0 -0.489939 -1.38371 0 0 0 0 10.4438 -0.637088 0 -0.637088 -1.22812 0 0 0 0 10.6142 -0.803361 0 -0.803361 -0.98104 0 0 0 0 10.7139 -0.965153 0 -0.965153 -0.645185 0 0 0 0 10.7272 -1.09446 0 -1.09446 -0.246472 0 0 0 0 10.6511 -1.16402 0 -1.16402 0.169311 0 0 0 0 10.504 -1.15255 0 -1.15255 0.54576 0 0 0 0 10.3295 -1.05348 0 -1.05348 0.826703 0 0 0 0 10.1812 -0.878323 0 -0.878323 0.966673 0 0 0 0 6.37494 -0.513379 0 -0.513379 0.139825 0 0 0 0 6.51707 -0.189928 0 -0.189928 -0.120567 0 0 0 0 6.79189 0.0590793 0 0.0590793 -0.451562 0 0 0 0 7.17434 0.217384 0 0.217384 -0.798965 0 0 0 0 7.62725 0.281979 0 0.281979 -1.1097 0 0 0 0 8.10431 0.264631 0 0.264631 -1.34798 0 0 0 0 8.56017 0.186014 0 0.186014 -1.49882 0 0 0 0 8.96273 0.0699778 0 0.0699778 -1.56164 0 0 0 0 9.29648 -0.0622921 0 -0.0622921 -1.5509 0 0 0 0 9.56029 -0.197456 0 -0.197456 -1.4914 0 0 0 0 9.77073 -0.330373 0 -0.330373 -1.38342 0 0 0 0 9.97228 -0.407159 0 -0.407159 -1.37511 0 0 0 0 10.1792 -0.50901 0 -0.50901 -1.31147 0 0 0 0 10.3799 -0.638966 0 -0.638966 -1.17429 0 0 0 0 10.5426 -0.787562 0 -0.787562 -0.952723 0 0 0 0 10.6397 -0.934416 0 -0.934416 -0.648881 0 0 0 0 10.6547 -1.05339 0 -1.05339 -0.285876 0 0 0 0 10.5838 -1.11848 0 -1.11848 0.0923444 0 0 0 0 10.4463 -1.10944 0 -1.10944 0.432245 0 0 0 0 10.2847 -1.02048 0 -1.02048 0.682001 0 0 0 0 10.1484 -0.862555 0 -0.862555 0.801018 0 0 0 0 6.64431 -0.534571 0 -0.534571 0.139881 0 0 0 0 6.76944 -0.237182 0 -0.237182 -0.100286 0 0 0 0 7.0189 -0.00786461 0 -0.00786461 -0.406121 0 0 0 0 7.36891 0.137023 0 0.137023 -0.72937 0 0 0 0 7.78676 0.195351 0 0.195351 -1.02169 0 0 0 0 8.23062 0.179899 0 0.179899 -1.24672 0 0 0 0 8.65486 0.109496 0 0.109496 -1.39062 0 0 0 0 9.02905 0.00455833 0 0.00455833 -1.45335 0 0 0 0 9.33756 -0.117616 0 -0.117616 -1.44962 0 0 0 0 9.57629 -0.246805 0 -0.246805 -1.40054 0 0 0 0 9.75053 -0.367765 0 -0.367765 -1.3025 0 0 0 0 9.93412 -0.4368 0 -0.4368 -1.32525 0 0 0 0 10.1299 -0.529204 0 -0.529204 -1.26712 0 0 0 0 10.3218 -0.644407 0 -0.644407 -1.13783 0 0 0 0 10.4811 -0.776295 0 -0.776295 -0.931615 0 0 0 0 10.5795 -0.908178 0 -0.908178 -0.651413 0 0 0 0 10.5997 -1.01679 0 -1.01679 -0.317499 0 0 0 0 10.5372 -1.07785 0 -1.07785 0.0288791 0 0 0 0 10.4111 -1.07171 0 -1.07171 0.337729 0 0 0 0 10.2628 -0.992567 0 -0.992567 0.561097 0 0 0 0 10.1376 -0.850612 0 -0.850612 0.661396 0 0 0 0 6.88057 -0.552654 0 -0.552654 0.141512 0 0 0 0 6.99153 -0.278251 0 -0.278251 -0.0799593 0 0 0 0 7.21748 -0.0669367 0 -0.0669367 -0.362624 0 0 0 0 7.54053 0.0653812 0 0.0653812 -0.663533 0 0 0 0 7.9296 0.118206 0 0.118206 -0.939745 0 0 0 0 8.34376 0.104417 0 0.104417 -1.15479 0 0 0 0 8.7384 0.0405148 0 0.0405148 -1.29484 0 0 0 0 9.08445 -0.0562599 0 -0.0562599 -1.35997 0 0 0 0 9.36632 -0.171373 0 -0.171373 -1.36392 0 0 0 0 9.57978 -0.294444 0 -0.294444 -1.32199 0 0 0 0 9.7164 -0.412078 0 -0.412078 -1.25338 0 0 0 0 9.896 -0.466213 0 -0.466213 -1.27294 0 0 0 0 10.0876 -0.548723 0 -0.548723 -1.22165 0 0 0 0 10.2728 -0.65264 0 -0.65264 -1.10326 0 0 0 0 10.4294 -0.771183 0 -0.771183 -0.912877 0 0 0 0 10.5301 -0.890001 0 -0.890001 -0.654261 0 0 0 0 10.5571 -0.988568 0 -0.988568 -0.345963 0 0 0 0 10.5053 -1.04493 0 -1.04493 -0.0266795 0 0 0 0 10.3925 -1.04071 0 -1.04071 0.255897 0 0 0 0 10.2578 -0.969923 0 -0.969923 0.456501 0 0 0 0 10.1436 -0.841836 0 -0.841836 0.540766 0 0 0 0 7.08512 -0.569368 0 -0.569368 0.142965 0 0 0 0 7.18491 -0.313691 0 -0.313691 -0.0606289 0 0 0 0 7.38837 -0.119333 0 -0.119333 -0.321412 0 0 0 0 7.68822 0.000599052 0 0.000599052 -0.603425 0 0 0 0 8.05514 0.0492512 0 0.0492512 -0.864587 0 0 0 0 8.44319 0.0373784 0 0.0373784 -1.0709 0 0 0 0 8.80939 -0.0216825 0 -0.0216825 -1.20902 0 0 0 0 9.12635 -0.113163 0 -0.113163 -1.27885 0 0 0 0 9.37923 -0.223931 0 -0.223931 -1.29159 0 0 0 0 9.56407 -0.341386 0 -0.341386 -1.25858 0 0 0 0 9.6844 -0.454607 0 -0.454607 -1.20348 0 0 0 0 9.86115 -0.495369 0 -0.495369 -1.21118 0 0 0 0 10.048 -0.568716 0 -0.568716 -1.17301 0 0 0 0 10.2286 -0.66427 0 -0.66427 -1.06917 0 0 0 0 10.384 -0.772404 0 -0.772404 -0.895488 0 0 0 0 10.4887 -0.87989 0 -0.87989 -0.656864 0 0 0 0 10.5251 -0.968527 0 -0.968527 -0.371047 0 0 0 0 10.4866 -1.0192 0 -1.0192 -0.0743786 0 0 0 0 10.3887 -1.01574 0 -1.01574 0.18609 0 0 0 0 10.2684 -0.951871 0 -0.951871 0.367042 0 0 0 0 10.1651 -0.835359 0 -0.835359 0.437738 0 0 0 0 7.26628 -0.585541 0 -0.585541 0.145647 0 0 0 0 7.35295 -0.344517 0 -0.344517 -0.0420604 0 0 0 0 7.53685 -0.166191 0 -0.166191 -0.281361 0 0 0 0 7.81704 -0.0582434 0 -0.0582434 -0.547967 0 0 0 0 8.16559 -0.0132493 0 -0.0132493 -0.795074 0 0 0 0 8.5307 -0.0238499 0 -0.0238499 -0.992709 0 0 0 0 8.87095 -0.0795453 0 -0.0795453 -1.12948 0 0 0 0 9.16045 -0.167206 0 -0.167206 -1.20507 0 0 0 0 9.38611 -0.273772 0 -0.273772 -1.22659 0 0 0 0 9.54549 -0.384967 0 -0.384967 -1.20428 0 0 0 0 9.65779 -0.491069 0 -0.491069 -1.15003 0 0 0 0 9.8233 -0.525825 0 -0.525825 -1.15679 0 0 0 0 10.0047 -0.590647 0 -0.590647 -1.12848 0 0 0 0 10.1843 -0.678706 0 -0.678706 -1.03736 0 0 0 0 10.3416 -0.778364 0 -0.778364 -0.879009 0 0 0 0 10.4533 -0.876297 0 -0.876297 -0.658389 0 0 0 0 10.5018 -0.955922 0 -0.955922 -0.39259 0 0 0 0 10.4792 -1.00064 0 -1.00064 -0.115643 0 0 0 0 10.3977 -0.996904 0 -0.996904 0.125648 0 0 0 0 10.2927 -0.938275 0 -0.938275 0.289481 0 0 0 0 10.1997 -0.830665 0 -0.830665 0.347343 0 0 0 0 7.43209 -0.60005 0 -0.60005 0.150301 0 0 0 0 7.49975 -0.371575 0 -0.371575 -0.0224499 0 0 0 0 7.66697 -0.20914 0 -0.20914 -0.243927 0 0 0 0 7.9334 -0.111239 0 -0.111239 -0.494551 0 0 0 0 8.26533 -0.0700896 0 -0.0700896 -0.726911 0 0 0 0 8.60889 -0.081598 0 -0.081598 -0.916715 0 0 0 0 8.92536 -0.135939 0 -0.135939 -1.05431 0 0 0 0 9.19034 -0.220501 0 -0.220501 -1.13774 0 0 0 0 9.39271 -0.321313 0 -0.321313 -1.16921 0 0 0 0 9.53537 -0.424407 0 -0.424407 -1.15681 0 0 0 0 9.63072 -0.522988 0 -0.522988 -1.11053 0 0 0 0 9.781 -0.556269 0 -0.556269 -1.11828 0 0 0 0 9.95774 -0.613685 0 -0.613685 -1.08998 0 0 0 0 10.1384 -0.694508 0 -0.694508 -1.00779 0 0 0 0 10.2999 -0.787392 0 -0.787392 -0.862865 0 0 0 0 10.4208 -0.878006 0 -0.878006 -0.658761 0 0 0 0 10.4838 -0.950554 0 -0.950554 -0.411619 0 0 0 0 10.4802 -0.989758 0 -0.989758 -0.152712 0 0 0 0 10.4183 -0.984479 0 -0.984479 0.0720957 0 0 0 0 10.3297 -0.929181 0 -0.929181 0.220893 0 0 0 0 10.2464 -0.827815 0 -0.827815 0.265296 0 0 0 0 7.58094 -0.611673 0 -0.611673 0.154647 0 0 0 0 7.6271 -0.395576 0 -0.395576 -0.00101582 0 0 0 0 7.77771 -0.24921 0 -0.24921 -0.212699 0 0 0 0 8.03639 -0.158751 0 -0.158751 -0.443444 0 0 0 0 8.35426 -0.121749 0 -0.121749 -0.657549 0 0 0 0 8.67741 -0.136668 0 -0.136668 -0.840836 0 0 0 0 8.97126 -0.191915 0 -0.191915 -0.983596 0 0 0 0 9.2136 -0.274107 0 -0.274107 -1.07914 0 0 0 0 9.39513 -0.368096 0 -0.368096 -1.12435 0 0 0 0 9.525 -0.462114 0 -0.462114 -1.12213 0 0 0 0 9.60466 -0.549718 0 -0.549718 -1.08375 0 0 0 0 9.7408 -0.582758 0 -0.582758 -1.08468 0 0 0 0 9.91005 -0.636108 0 