<?xml version="1.0"?> 
<VTKFile type="StructuredGrid" version="0.1"> 
<StructuredGrid WholeExtent="0 19 0 19 0 0"> 
<Piece Extent="0 19 0 19 0 0"> 
<PointData>
<DataArray type="Float32" Name="u" format="ascii" NumberOfComponents="3"> 
0.841471 0.841471 0 0.859077 0.844953 0 0.887805 0.857938 0 0.91633 0.87808 0 0.941461 0.900289 0 0.962306 0.922197 0 0.978548 0.942251 0 0.99051 0.95948 0 0.998671 0.973624 0 1.00345 0.984692 0 1.00511 0.992801 0 1.00377 0.997985 0 0.999464 1.00013 0 0.992251 0.999001 0 0.98229 0.994362 0 0.969858 0.986053 0 0.955317 0.973973 0 0.939167 0.957901 0 0.922548 0.937092 0 0.909298 0.909298 0 0.837534 0.796604 0 0.866523 0.816583 0 0.886898 0.827092 0 0.906494 0.843261 0 0.926655 0.86562 0 0.945298 0.889843 0 0.961076 0.913324 0 0.973476 0.93466 0 0.982424 0.953193 0 0.988086 0.968782 0 0.990715 0.981492 0 0.990566 0.991429 0 0.987851 0.998614 0 0.982713 1.00294 0 0.975224 1.00422 0 0.965417 1.00227 0 0.953289 0.997015 0 0.938748 0.988566 0 0.921527 0.977186 0 0.901286 0.963097 0 0.82536 0.741681 0 0.854936 0.768988 0 0.878273 0.789902 0 0.894973 0.804959 0 0.909247 0.821888 0 0.923248 0.843034 0 0.936575 0.866618 0 0.948184 0.890427 0 0.95725 0.912809 0 0.963367 0.932843 0 0.966475 0.95019 0 0.966709 0.964847 0 0.964263 0.976957 0 0.959297 0.986674 0 0.951882 0.99408 0 0.941984 0.999169 0 0.929511 1.00187 0 0.914386 1.0021 0 0.896641 0.999778 0 0.876291 0.994971 0 0.80461 0.675767 0 0.831431 0.703025 0 0.855111 0.729916 0 0.87404 0.752785 0 0.88769 0.771014 0 0.897916 0.788335 0 0.906564 0.807473 0 0.914284 0.828775 0 0.920848 0.851295 0 0.925673 0.873719 0 0.92821 0.894952 0 0.928105 0.914309 0 0.925212 0.931495 0 0.919544 0.946492 0 0.911201 0.959428 0 0.900311 0.970455 0 0.88699 0.979671 0 0.871311 0.987086 0 0.853283 0.992648 0 0.832948 0.996239 0 0.775263 0.598313 0 0.799128 0.624185 0 0.820094 0.649925 0 0.838282 0.675576 0 0.852958 0.699246 0 0.863491 0.71969 0 0.870302 0.737983 0 0.874385 0.755927 0 0.876577 0.774718 0 0.877271 0.794675 0 0.876451 0.815434 0 0.873866 0.836319 0 0.869206 0.856633 0 0.862219 0.875823 0 0.852766 0.893548 0 0.840825 0.909659 0 0.826463 0.924159 0 0.809807 0.93713 0 0.791017 0.948661 0 0.770245 0.958813 0 0.737666 0.50931 0 0.758386 0.532732 0 0.776219 0.555897 0 0.791299 0.578926 0 0.803801 0.602093 0 0.813517 0.624701 0 0.820029 0.645724 0 0.823181 0.664922 0 0.823207 0.682824 0 0.820553 0.700242 0 0.815667 0.71786 0 0.808865 0.736029 0 0.800294 0.754761 0 0.789963 0.77382 0 0.777802 0.792846 0 0.763726 0.811459 0 0.747675 0.829331 0 0.72965 0.846223 0 0.709714 0.861998 0 0.687986 0.876608 0 0.69255 0.409411 0 0.709848 0.429133 0 0.724331 0.448786 0 0.736011 0.468257 0 0.744949 0.487552 0 0.751301 0.506954 0 0.755126 0.526437 0 0.756312 0.545574 0 0.754706 0.563933 0 0.750251 0.58135 0 0.743034 0.597955 0 0.733258 0.614065 0 0.721181 0.630035 0 0.707054 0.646152 0 0.691085 0.662575 0 0.673429 0.679327 0 0.654184 0.696321 0 0.633407 0.713398 0 0.611124 0.730369 0 0.587357 0.74705 0 0.641019 0.299995 0 0.654716 0.314961 0 0.665588 0.329904 0 0.673667 0.344841 0 0.678975 0.359702 0 0.681528 0.374398 0 0.681417 0.389053 0 0.67876 0.403824 0 0.673635 0.418709 0 0.666061 0.43356 0 0.656035 0.448188 0 0.643574 0.46246 0 0.628741 0.476345 0 0.611654 0.489908 0 0.592475 0.503285 0 0.571389 0.516637 0 0.548585 0.530117 0 0.524238 0.543849 0 0.498492 0.557911 0 0.471446 0.572351 0 0.584487 0.183157 0 0.594502 0.192458 0 0.601686 0.201811 0 0.606046 0.211175 0 0.60761 0.220566 0 0.606424 0.229973 0 0.602513 0.239308 0 0.595925 0.248544 0 0.586744 0.257746 0 0.575082 0.267003 0 0.56105 0.276362 0 0.544751 0.285811 0 0.526273 0.295295 0 0.505706 0.30475 0 0.483148 0.314124 0 0.458716 0.323398 0 0.43255 0.332586 0 0.404819 0.341732 0 0.375721 0.350893 0 0.345508 0.360113 0 0.524575 0.0615933 0 0.530994 0.0646446 0 0.534562 0.0677554 0 0.535302 0.0709173 0 0.533234 0.0740999 0 0.528389 0.0773022 0 0.520821 0.0805532 0 0.510588 0.0838294 0 0.49775 0.0870789 0 0.482378 0.090273 0 0.464562 0.0934206 0 0.444416 0.0965577 0 0.422071 0.0997252 0 0.397666 0.102952 0 0.371347 0.106247 0 0.343263 0.109599 0 0.313578 0.112983 0 0.282466 0.116363 0 0.250129 0.119699 0 0.216789 0.122951 0 0.462981 -0.0615933 0 0.466079 -0.0649782 0 0.466355 -0.0683198 0 0.463802 -0.0716252 0 0.45844 -0.0748932 0 0.45031 -0.0781412 0 0.439457 -0.0813908 0 0.425942 -0.0846269 0 0.409841 -0.0878288 0 0.39124 -0.0909966 0 0.370231 -0.094148 0 0.346913 -0.0973062 0 0.321397 -0.100486 0 0.29381 -0.103692 0 0.264296 -0.106915 0 0.233015 -0.110145 0 0.200143 -0.113368 0 0.165865 -0.11658 0 0.13037 -0.119776 0 0.0938384 -0.122951 0 0.40133 -0.183157 0 0.401604 -0.192782 0 0.399105 -0.202355 0 0.393835 -0.211875 0 0.385814 -0.22135 0 0.375066 -0.23078 0 0.361639 -0.240169 0 0.345592 -0.249536 0 0.326992 -0.258897 0 0.305917 -0.268248 0 0.282464 -0.277577 0 0.25674 -0.28687 0 0.228865 -0.296122 0 0.198967 -0.305333 0 0.167182 -0.314511 0 0.133659 -0.323665 0 0.0985504 -0.332801 0 0.0620212 -0.341922 0 0.024242 -0.351027 0 -0.0146053 -0.360113 0 0.341024 -0.299995 0 0.339101 -0.315345 0 0.334533 -0.330568 0 0.327296 -0.345664 0 0.317399 -0.360638 0 0.304885 -0.375505 0 0.289802 -0.390272 0 0.27221 -0.40493 0 0.252177 -0.419476 0 0.229779 -0.433917 0 0.205099 -0.448257 0 0.178228 -0.462504 0 0.149269 -0.476653 0 0.118336 -0.490701 0 0.0855565 -0.504636 0 0.0510688 -0.51845 0 0.01502 -0.532134 0 -0.0224345 -0.545682 0 -0.0611324 -0.559089 0 -0.100906 -0.572351 0 0.283139 -0.409411 0 0.279781 -0.429658 0 0.273923 -0.449637 0 0.265553 -0.469335 0 0.254714 -0.488757 0 0.241446 -0.507905 0 0.225796 -0.52679 0 0.207814 -0.545424 0 0.187554 -0.563812 0 0.165082 -0.581946 0 0.140476 -0.599817 0 0.113824 -0.617413 0 0.0852245 -0.634722 0 0.0547838 -0.651736 0 0.0226155 -0.668446 0 -0.0111594 -0.684842 0 -0.0464131 -0.700914 0 -0.0830133 -0.716649 0 -0.120823 -0.732032 0 -0.159693 -0.74705 0 0.228355 -0.50931 0 0.22437 -0.533452 0 0.218069 -0.557057 0 0.209494 -0.580127 0 0.198671 -0.602683 0 0.185642 -0.62475 0 0.170464 -0.646336 0 0.1532 -0.667432 0 0.133921 -0.688021 0 0.112698 -0.708084 0 0.0896019 -0.727606 0 0.0647047 -0.746571 0 0.038083 -0.764965 0 0.00981932 -0.782774 0 -0.0199955 -0.799984 0 -0.0512612 -0.816584 0 -0.083868 -0.832563 0 -0.1177 -0.847909 0 -0.152646 -0.862604 0 -0.188622 -0.876608 0 0.17695 -0.598313 0 0.173135 -0.625307 0 0.167197 -0.651379 0 0.159147 -0.676584 0 0.149112 -0.700953 0 0.137236 -0.724467 0 0.123622 -0.7471 0 0.108328 -0.768838 0 0.0913863 -0.789683 0 0.072823 -0.809643 0 0.0526703 -0.828727 0 0.0309732 -0.846938 0 0.00779003 -0.864268 0 -0.0168091 -0.880701 0 -0.0427433 -0.89621 0 -0.0699196 -0.91076 0 -0.098229 -0.924321 0 -0.12754 -0.936863 0 -0.157706 -0.948366 0 -0.188569 -0.958813 0 0.128843 -0.675767 0 0.126014 -0.704562 0 0.121047 -0.731913 0 0.114359 -0.757803 0 0.106193 -0.782245 0 0.0965859 -0.805363 0 0.0855185 -0.827305 0 0.0729877 -0.848169 0 0.0590298 -0.86798 0 0.043715 -0.886704 0 0.0271371 -0.904263 0 0.00940139 -0.920561 0 -0.00938549 -0.935498 0 -0.0291238 -0.948982 0 -0.0497289 -0.960933 0 -0.0711336 -0.971283 0 -0.0932835 -0.979984 0 -0.116116 -0.987014 0 -0.139519 -0.992401 0 -0.163291 -0.996239 0 0.0836789 -0.741681 0 0.0826964 -0.771368 0 0.0798085 -0.798549 0 0.0751139 -0.823841 0 0.0686527 -0.847877 0 0.0606847 -0.870854 0 0.0515345 -0.892628 0 0.0414943 -0.912908 0 0.0307825 -0.931392 0 0.0195416 -0.947841 0 0.00785225 -0.962102 0 -0.00424922 -0.974107 0 -0.0167536 -0.98386 0 -0.029669 -0.991417 0 -0.0430149 -0.996865 0 -0.0568296 -1.0003 0 -0.0711845 -1.00179 0 -0.0861958 -1.00139 0 -0.102005 -0.999108 0 -0.118679 -0.994971 0 0.0409295 -0.796604 0 0.0432443 -0.826754 0 0.0410041 -0.855191 0 0.0361148 -0.882391 0 0.0302405 -0.907565 0 0.0242989 -0.929949 0 0.0186794 -0.949132 0 0.0134534 -0.965019 0 0.00852179 -0.977717 0 0.00371087 -0.987438 0 -0.00116725 -0.994429 0 -0.00627822 -0.998935 0 -0.011745 -1.00117 0 -0.0176368 -1.00133 0 -0.0239691 -0.999545 0 -0.0307075 -0.99593 0 -0.0377888 -0.990549 0 -0.0451795 -0.983407 0 -0.0530119 -0.974378 0 -0.0618101 -0.963097 0 -8.3797e-08 -0.841471 0 0.000820345 -0.883057 0 -0.000945403 -0.91423 0 -0.00279324 -0.938188 0 -0.00406148 -0.956718 0 -0.00460793 -0.971003 0 -0.00455354 -0.981844 0 -0.0041023 -0.989789 0 -0.00344751 -0.995213 0 -0.00278389 -0.998335 0 -0.0022512 -0.999266 0 -0.00194742 -0.99803 0 -0.00191061 -0.994599 0 -0.00212695 -0.988911 0 -0.00253134 -0.980907 0 -0.00301442 -0.970557 0 -0.00343233 -0.95789 0 -0.0035863 -0.943044 0 -0.00312053 -0.92636 0 -6.9812e-07 -0.909298 0 </DataArray> 
</PointData> 
<Points> 
<DataArray type="Float32" NumberOfComponents="3"> 
1 0 0 1.05263 0 0 1.10526 0 0 1.15789 0 0 1.21053 0 0 1.26316 0 0 1.31579 0 0 1.36842 0 0 1.42105 0 0 1.47368 0 0 1.52632 0 0 1.57895 0 0 1.63158 0 0 1.68421 0 0 1.73684 0 0 1.78947 0 0 1.84211 0 0 1.89474 0 0 1.94737 0 0 2 0 0 0.997147 0.0754898 0 1.04963 0.079463 0 1.10211 0.0834361 0 1.15459 0.0874093 0 1.20707 0.0913824 0 1.25955 0.0953555 0 1.31203 0.0993287 0 1.36452 0.103302 0 1.417 0.107275 0 1.46948 0.111248 0 1.52196 0.115221 0 1.57444 0.119194 0 1.62692 0.123168 0 1.6794 0.127141 0 1.73189 0.131114 0 1.78437 0.135087 0 1.83685 0.13906 0 1.88933 0.143033 0 1.94181 0.147006 0 1.99429 0.15098 0 0.988273 0.1527 0 1.04029 0.160736 0 1.0923 0.168773 0 1.14432 0.17681 0 1.19633 0.184847 0 1.24834 0.192884 0 1.30036 0.20092 0 1.35237 0.208957 0 1.40439 0.216994 0 1.4564 0.225031 0 1.50842 0.233068 0 1.56043 0.241105 0 1.61244 0.249141 0 1.66446 0.257178 0 1.71647 0.265215 0 1.76849 0.273252 0 1.8205 0.281289 0 1.87252 0.289325 0 1.92453 0.297362 0 1.97655 0.305399 0 0.972963 0.230959 0 1.02417 0.243115 0 1.07538 0.255271 0 1.12659 0.267427 0 1.1778 0.279582 0 1.22901 0.291738 0 1.28022 0.303894 0 1.33142 0.31605 0 1.38263 0.328205 0 1.43384 0.340361 0 1.48505 0.352517 0 1.53626 0.364673 0 1.58747 0.376828 0 1.63868 0.388984 0 1.68988 0.40114 0 1.74109 0.413296 0 1.7923 0.425451 0 1.84351 0.437607 0 1.89472 0.449763 0 1.94593 0.461919 0 0.950898 0.309504 0 1.00095 0.325794 0 1.05099 0.342084 0 1.10104 0.358373 0 1.15109 0.374663 0 1.20113 0.390953 0 1.25118 0.407242 0 1.30123 0.423532 0 1.35128 0.439822 0 1.40132 0.456111 0 1.45137 0.472401 0 1.50142 0.488691 0 1.55147 0.504981 0 1.60151 0.52127 0 1.65156 0.53756 0 1.70161 0.55385 0 1.75165 0.570139 0 1.8017 0.586429 0 1.85175 0.602719 0 1.9018 0.619008 0 0.921874 0.38749 0 0.970393 0.407885 0 1.01891 0.428279 0 1.06743 0.448673 0 1.11595 0.469067 0 1.16447 0.489461 0 1.21299 0.509856 0 1.26151 0.53025 0 1.31003 0.550644 0 1.35855 0.571038 0 1.40707 0.591433 0 1.45559 0.611827 0 1.50411 0.632221 0 1.55263 0.652615 0 1.60115 0.67301 0 1.64967 0.693404 0 1.69819 0.713798 0 1.74671 0.734192 0 1.79523 0.754586 0 1.84375 0.774981 0 0.885826 0.464017 0 0.932449 0.488439 0 0.979071 0.512861 0 1.02569 0.537283 0 1.07232 0.561705 0 1.11894 0.586127 0 1.16556 0.610549 0 1.21218 0.634971 0 1.25881 0.659393 0 1.30543 0.683815 0 1.35205 0.708237 0 1.39867 0.732659 0 1.4453 0.757081 0 1.49192 0.781503 0 1.53854 0.805925 0 1.58516 0.830347 0 1.63179 0.854769 0 1.67841 0.879191 0 1.72503 0.903613 0 1.77165 0.928035 0 0.842845 0.538157 0 0.887205 0.566481 0 0.931565 0.594805 0 0.975926 0.623129 0 1.02029 0.651453 0 1.06465 0.679777 0 1.10901 0.708101 0 1.15337 0.736425 0 1.19773 0.764749 0 1.24209 0.793073 0 1.28645 0.821397 0 1.33081 0.849721 0 1.37517 0.878045 0 1.41953 0.906369 0 1.46389 0.934693 0 1.50825 0.963017 0 1.55261 0.991341 0 1.59697 1.01966 0 1.64133 1.04799 0 1.68569 1.07631 0 0.793182 0.608985 0 0.834928 0.641037 0 0.876675 0.673088 0 0.918421 0.70514 0 0.960168 0.737192 0 1.00191 0.769244 0 1.04366 0.801296 0 1.08541 0.833347 0 1.12715 0.865399 0 1.1689 0.897451 0 1.21065 0.929503 0 1.25239 0.961555 0 1.29414 0.993607 0 1.33589 1.02566 0 1.37763 1.05771 0 1.41938 1.08976 0 1.46112 1.12181 0 1.50287 1.15387 0 1.54462 1.18592 0 1.58636 1.21797 0 0.737251 0.675619 0 0.776054 0.711178 0 0.814857 0.746737 0 0.853659 0.782295 0 0.892462 0.817854 0 0.931265 0.853413 0 0.970067 0.888972 0 1.00887 0.924531 0 1.04767 0.96009 0 1.08648 0.995649 0 1.12528 1.03121 0 1.16408 1.06677 0 1.20288 1.10233 0 1.24169 1.13788 0 1.28049 1.17344 0 1.31929 1.209 0 1.35809 1.24456 0 1.3969 1.28012 0 1.4357 1.31568 0 1.4745 1.35124 0 0.675619 0.737251 0 0.711178 0.776054 0 0.746737 0.814857 0 0.782295 0.853659 0 0.817854 0.892462 0 0.853413 0.931265 0 0.888972 0.970067 0 0.924531 1.00887 0 0.96009 1.04767 0 0.995649 1.08648 0 1.03121 1.12528 0 1.06677 1.16408 0 1.10233 1.20288 0 1.13788 1.24169 0 1.17344 1.28049 0 1.209 1.31929 0 1.24456 1.35809 0 1.28012 1.3969 0 1.31568 1.4357 0 1.35124 1.4745 0 0.608985 0.793182 0 0.641037 0.834928 0 0.673088 0.876675 0 0.70514 0.918421 0 0.737192 0.960168 0 0.769244 1.00191 0 0.801296 1.04366 0 0.833347 1.08541 0 0.865399 1.12715 0 0.897451 1.1689 0 0.929503 1.21065 0 0.961555 1.25239 0 0.993607 1.29414 0 1.02566 1.33589 0 1.05771 1.37763 0 1.08976 1.41938 0 1.12181 1.46112 0 1.15387 1.50287 0 1.18592 1.54462 0 1.21797 1.58636 0 0.538157 0.842845 0 0.566481 0.887205 0 0.594805 0.931565 0 0.623129 0.975926 0 0.651453 1.02029 0 0.679777 1.06465 0 0.708101 1.10901 0 0.736425 1.15337 0 0.764749 1.19773 0 0.793073 1.24209 0 0.821397 1.28645 0 0.849721 1.33081 0 0.878045 1.37517 0 0.906369 1.41953 0 0.934693 1.46389 0 0.963017 1.50825 0 0.991341 1.55261 0 1.01966 1.59697 0 1.04799 1.64133 0 1.07631 1.68569 0 0.464017 0.885826 0 0.488439 0.932449 0 0.512861 0.979071 0 0.537283 1.02569 0 0.561705 1.07232 0 0.586127 1.11894 0 0.610549 1.16556 0 0.634971 1.21218 0 0.659393 1.25881 0 0.683815 1.30543 0 0.708237 1.35205 0 0.732659 1.39867 0 0.757081 1.4453 0 0.781503 1.49192 0 0.805925 1.53854 0 0.830347 1.58516 0 0.854769 1.63179 0 0.879191 1.67841 0 0.903613 1.72503 0 0.928035 1.77165 0 0.38749 0.921874 0 0.407885 0.970393 0 0.428279 1.01891 0 0.448673 1.06743 0 0.469067 1.11595 0 0.489461 1.16447 0 0.509856 1.21299 0 0.53025 1.26151 0 0.550644 1.31003 0 0.571038 1.35855 0 0.591433 1.40707 0 0.611827 1.45559 0 0.632221 1.50411 0 0.652615 1.55263 0 0.67301 1.60115 0 0.693404 1.64967 0 0.713798 1.69819 0 0.734192 1.74671 0 0.754586 1.79523 0 0.774981 1.84375 0 0.309504 0.950898 0 0.325794 1.00095 0 0.342084 1.05099 0 0.358373 1.10104 0 0.374663 1.15109 0 0.390953 1.20113 0 0.407242 1.25118 0 0.423532 1.30123 0 0.439822 1.35128 0 0.456111 1.40132 0 0.472401 1.45137 0 0.488691 1.50142 0 0.504981 1.55147 0 0.52127 1.60151 0 0.53756 1.65156 0 0.55385 1.70161 0 0.570139 1.75165 0 0.586429 1.8017 0 0.602719 1.85175 0 0.619008 1.9018 0 0.230959 0.972963 0 0.243115 1.02417 0 0.255271 1.07538 0 0.267427 1.12659 0 0.279582 1.1778 0 0.291738 1.22901 0 0.303894 1.28022 0 0.31605 1.33142 0 0.328205 1.38263 0 0.340361 1.43384 0 0.352517 1.48505 0 0.364673 1.53626 0 0.376828 1.58747 0 0.388984 1.63868 0 0.40114 1.68988 0 0.413296 1.74109 0 0.425451 1.7923 0 0.437607 1.84351 0 0.449763 1.89472 0 0.461919 1.94593 0 0.1527 0.988273 0 0.160736 1.04029 0 0.168773 1.0923 0 0.17681 1.14432 0 0.184847 1.19633 0 0.192884 1.24834 0 0.20092 1.30036 0 0.208957 1.35237 0 0.216994 1.40439 0 0.225031 1.4564 0 0.233068 1.50842 0 0.241105 1.56043 0 0.249141 1.61244 0 0.257178 1.66446 0 0.265215 1.71647 0 0.273252 1.76849 0 0.281289 1.8205 0 0.289325 1.87252 0 0.297362 1.92453 0 0.305399 1.97655 0 0.0754898 0.997147 0 0.079463 1.04963 0 0.0834361 1.10211 0 0.0874093 1.15459 0 0.0913824 1.20707 0 0.0953555 1.25955 0 0.0993287 1.31203 0 0.103302 1.36452 0 0.107275 1.417 0 0.111248 1.46948 0 0.115221 1.52196 0 0.119194 1.57444 0 0.123168 1.62692 0 0.127141 1.6794 0 0.131114 1.73189 0 0.135087 1.78437 0 0.13906 1.83685 0 0.143033 1.88933 0 0.147006 1.94181 0 0.15098 1.99429 0 0 1 0 0 1.05263 0 0 1.10526 0 0 1.15789 0 0 1.21053 0 0 1.26316 0 0 1.31579 0 0 1.36842 0 0 1.42105 0 0 1.47368 0 0 1.52632 0 0 1.57895 0 0 1.63158 0 0 1.68421 0 0 1.73684 0 0 1.78947 0 0 1.84211 0 0 1.89474 0 0 1.94737 0 0 2 0 
</DataArray>
</Points> 
</Piece> 
</StructuredGrid> 
</VTKFile> 
