<?xml version="1.0"?> 
<VTKFile type="StructuredGrid" version="0.1"> 
<StructuredGrid WholeExtent="0 19 0 19 0 0"> 
<Piece Extent="0 19 0 19 0 0"> 
<PointData>
<DataArray type="Float32" Name="u" format="ascii" NumberOfComponents="3"> 
0.918455 0.957161 0 0.893866 0.861459 0 0.869278 0.765756 0 0.844689 0.670054 0 0.820101 0.574351 0 0.795512 0.478649 0 0.770924 0.382946 0 0.746335 0.287244 0 0.721747 0.191541 0 0.697158 0.0958388 0 0.70762 0.116677 0 0.753134 0.254055 0 0.798647 0.391434 0 0.84416 0.528812 0 0.889674 0.666191 0 0.935187 0.803569 0 0.9807 0.940947 0 1.02621 1.07833 0 1.07173 1.2157 0 1.11724 1.35308 0 0.875152 0.856407 0 0.855693 0.780602 0 0.836234 0.704797 0 0.816775 0.628992 0 0.797316 0.553187 0 0.777857 0.477382 0 0.758398 0.401577 0 0.738939 0.325772 0 0.71948 0.249967 0 0.700021 0.174162 0 0.707184 0.192806 0 0.740968 0.3059 0 0.774752 0.418994 0 0.808536 0.532088 0 0.84232 0.645183 0 0.876104 0.758277 0 0.909888 0.871371 0 0.943672 0.984465 0 0.977456 1.09756 0 1.01124 1.21065 0 0.831849 0.755654 0 0.817519 0.699746 0 0.80319 0.643838 0 0.788861 0.58793 0 0.774531 0.532023 0 0.760202 0.476115 0 0.745873 0.420207 0 0.731543 0.3643 0 0.717214 0.308392 0 0.702885 0.252484 0 0.706747 0.268935 0 0.728802 0.357745 0 0.750857 0.446555 0 0.772911 0.535365 0 0.794966 0.624174 0 0.81702 0.712984 0 0.839075 0.801794 0 0.861129 0.890604 0 0.883184 0.979413 0 0.905238 1.06822 0 0.788546 0.6549 0 0.779346 0.618889 0 0.770146 0.582879 0 0.760946 0.546869 0 0.751747 0.510859 0 0.742547 0.474848 0 0.733347 0.438838 0 0.724148 0.402828 0 0.714948 0.366817 0 0.705748 0.330807 0 0.706311 0.345065 0 0.716636 0.40959 0 0.726961 0.474116 0 0.737286 0.538641 0 0.747612 0.603166 0 0.757937 0.667692 0 0.768262 0.732217 0 0.778587 0.796743 0 0.788912 0.861268 0 0.799237 0.925793 0 0.745242 0.554146 0 0.741172 0.538033 0 0.737102 0.52192 0 0.733032 0.505807 0 0.728962 0.489694 0 0.724892 0.473581 0 0.720822 0.457469 0 0.716752 0.441356 0 0.712682 0.425243 0 0.708612 0.40913 0 0.705874 0.421194 0 0.70447 0.461435 0 0.703066 0.501676 0 0.701662 0.541917 0 0.700257 0.582158 0 0.698853 0.622399 0 0.697449 0.66264 0 0.696045 0.702882 0 0.694641 0.743123 0 0.693236 0.783364 0 0.701939 0.453392 0 0.702999 0.457177 0 0.704058 0.460961 0 0.705118 0.464746 0 0.706177 0.46853 0 0.707237 0.472315 0 0.708296 0.476099 0 0.709356 0.479884 0 0.710415 0.483668 0 0.711475 0.487453 0 0.705438 0.497323 0 0.692304 0.51328 0 0.679171 0.529237 0 0.666037 0.545194 0 0.652903 0.56115 0 0.63977 0.577107 0 0.626636 0.593064 0 0.613503 0.60902 0 0.600369 0.624977 0 0.587235 0.640934 0 0.658636 0.352638 0 0.664825 0.37632 0 0.671014 0.400002 0 0.677204 0.423684 0 0.683393 0.447366 0 0.689582 0.471048 0 0.695771 0.49473 0 0.70196 0.518412 0 0.708149 0.542094 0 0.714338 0.565775 0 0.705001 0.573453 0 0.680138 0.565125 0 0.655275 0.556797 0 0.630412 0.54847 0 0.605549 0.540142 0 0.580686 0.531815 0 0.555823 0.523487 0 0.53096 0.515159 0 0.506097 0.506832 0 0.481234 0.498504 0 0.615333 0.251885 0 0.626652 0.295464 0 0.63797 0.339043 0 0.649289 0.382622 0 0.660608 0.426202 0 0.671927 0.469781 0 0.683246 0.51336 0 0.694564 0.55694 0 0.705883 0.600519 0 0.717202 0.644098 0 0.704565 0.649582 0 0.667973 0.61697 0 0.63138 0.584358 0 0.594788 0.551746 0 0.558195 0.519134 0 0.521603 0.486522 0 0.48501 0.45391 0 0.448418 0.421298 0 0.411826 0.388686 0 0.375233 0.356074 0 0.57203 0.151131 0 0.588478 0.214607 0 0.604927 0.278084 0 0.621375 0.341561 0 0.637823 0.405037 0 0.654272 0.468514 0 0.67072 0.531991 0 0.687169 0.595468 0 0.703617 0.658944 0 0.720065 0.722421 0 0.704129 0.725711 0 0.655807 0.668815 0 0.607485 0.611919 0 0.559163 0.555022 0 0.510841 0.498126 0 0.462519 0.44123 0 0.414198 0.384333 0 0.365876 0.327437 0 0.317554 0.270541 0 0.269232 0.213645 0 0.528727 0.0503769 0 0.550305 0.133751 0 0.571883 0.217125 0 0.593461 0.300499 0 0.615039 0.383873 0 0.636617 0.467247 0 0.658195 0.550621 0 0.679773 0.633996 0 0.701351 0.71737 0 0.722929 0.800744 0 0.703692 0.80184 0 0.643641 0.72066 0 0.58359 0.639479 0 0.523538 0.558299 0 0.463487 0.477118 0 0.403436 0.395937 0 0.343385 0.314757 0 0.283333 0.233576 0 0.223282 0.152396 0 0.163231 0.0712149 0 0.47835 -0.0503769 0 0.497595 0.0321 0 0.516841 0.114577 0 0.536086 0.197054 0 0.555332 0.279531 0 0.574577 0.362007 0 0.593823 0.444484 0 0.613068 0.526961 0 0.632314 0.609438 0 0.651559 0.691915 0 0.631226 0.690818 0 0.571314 0.606148 0 0.511402 0.521477 0 0.451489 0.436807 0 0.391577 0.352137 0 0.331665 0.267466 0 0.271753 0.182796 0 0.211841 0.0981258 0 0.151928 0.0134555 0 0.0920161 -0.0712149 0 0.420899 -0.151131 0 0.43035 -0.0903457 0 0.439801 -0.0295607 0 0.449252 0.0312243 0 0.458703 0.0920093 0 0.468154 0.152794 0 0.477605 0.213579 0 0.487056 0.274364 0 0.496507 0.335149 0 0.505958 0.395934 0 0.486731 0.392644 0 0.438826 0.325279 0 0.390921 0.257913 0 0.343016 0.190548 0 0.295111 0.123182 0 0.247207 0.055817 0 0.199302 -0.0115484 0 0.151397 -0.0789138 0 0.103492 -0.146279 0 0.0555874 -0.213645 0 0.363448 -0.251885 0 0.363105 -0.212791 0 0.362761 -0.173698 0 0.362418 -0.134605 0 0.362074 -0.0955119 0 0.36173 -0.0564187 0 0.361387 -0.0173256 0 0.361043 0.0217676 0 0.360699 0.0608607 0 0.360356 0.0999539 0 0.342235 0.0944702 0 0.306338 0.0444097 0 0.270441 -0.00565084 0 0.234543 -0.0557113 0 0.198646 -0.105772 0 0.162748 -0.155832 0 0.126851 -0.205893 0 0.0909535 -0.255953 0 0.0550561 -0.306014 0 0.0191587 -0.356074 0 0.305998 -0.352638 0 0.29586 -0.335237 0 0.285721 -0.317836 0 0.275583 -0.300434 0 0.265445 -0.283033 0 0.255307 -0.265632 0 0.245169 -0.248231 0 0.23503 -0.230829 0 0.224892 -0.213428 0 0.214754 -0.196027 0 0.19774 -0.203704 0 0.17385 -0.236459 0 0.14996 -0.269215 0 0.12607 -0.301971 0 0.10218 -0.334726 0 0.07829 -0.367482 0 0.0544 -0.400237 0 0.03051 -0.432993 0 0.00661998 -0.465749 0 -0.01727 -0.498504 0 0.248547 -0.453392 0 0.228614 -0.457683 0 0.208682 -0.461973 0 0.188749 -0.466264 0 0.168816 -0.470554 0 0.148883 -0.474845 0 0.128951 -0.479135 0 0.109018 -0.483426 0 0.089085 -0.487717 0 0.0691522 -0.492007 0 0.0532445 -0.501878 0 0.041362 -0.517328 0 0.0294794 -0.532779 0 0.0175968 -0.54823 0 0.0057142 -0.56368 0 -0.00616838 -0.579131 0 -0.018051 -0.594582 0 -0.0299335 -0.610033 0 -0.0418161 -0.625483 0 -0.0536987 -0.640934 0 0.191096 -0.554146 0 0.161369 -0.580128 0 0.131642 -0.606111 0 0.101914 -0.632093 0 0.0721871 -0.658076 0 0.0424598 -0.684058 0 0.0127324 -0.71004 0 -0.0169949 -0.736023 0 -0.0467223 -0.762005 0 -0.0764496 -0.787988 0 -0.0912509 -0.800052 0 -0.091126 -0.798197 0 -0.0910012 -0.796343 0 -0.0908764 -0.794489 0 -0.0907516 -0.792635 0 -0.0906267 -0.790781 0 -0.0905019 -0.788926 0 -0.0903771 -0.787072 0 -0.0902522 -0.785218 0 -0.0901274 -0.783364 0 0.133646 -0.6549 0 0.0941239 -0.702574 0 0.054602 -0.750248 0 0.0150801 -0.797923 0 -0.0244419 -0.845597 0 -0.0639638 -0.893271 0 -0.103486 -0.940945 0 -0.143008 -0.98862 0 -0.18253 -1.03629 0 -0.222051 -1.08397 0 -0.235746 -1.09823 0 -0.223614 -1.07907 0 -0.211482 -1.05991 0 -0.19935 -1.04075 0 -0.187217 -1.02159 0 -0.175085 -1.00243 0 -0.162953 -0.983271 0 -0.150821 -0.964112 0 -0.138688 -0.944953 0 -0.126556 -0.925793 0 0.0761951 -0.755654 0 0.0268787 -0.82502 0 -0.0224378 -0.894386 0 -0.0717543 -0.963752 0 -0.121071 -1.03312 0 -0.170387 -1.10248 0 -0.219704 -1.17185 0 -0.26902 -1.24122 0 -0.318337 -1.31058 0 -0.367653 -1.37995 0 -0.380242 -1.3964 0 -0.356102 -1.35994 0 -0.331962 -1.32347 0 -0.307823 -1.28701 0 -0.283683 -1.25054 0 -0.259543 -1.21408 0 -0.235404 -1.17762 0 -0.211264 -1.14115 0 -0.187124 -1.10469 0 -0.162985 -1.06822 0 0.0187445 -0.856407 0 -0.0403666 -0.947465 0 -0.0994776 -1.03852 0 -0.158589 -1.12958 0 -0.2177 -1.22064 0 -0.276811 -1.3117 0 -0.335922 -1.40276 0 -0.395033 -1.49381 0 -0.454144 -1.58487 0 -0.513255 -1.67593 0 -0.524737 -1.69457 0 -0.48859 -1.6408 0 -0.452443 -1.58704 0 -0.416296 -1.53327 0 -0.380149 -1.4795 0 -0.344002 -1.42573 0 -0.307855 -1.37196 0 -0.271708 -1.31819 0 -0.235561 -1.26442 0 -0.199414 -1.21065 0 -0.0387062 -0.957161 0 -0.107612 -1.06991 0 -0.176517 -1.18266 0 -0.245423 -1.29541 0 -0.314329 -1.40816 0 -0.383234 -1.52091 0 -0.45214 -1.63366 0 -0.521046 -1.74641 0 -0.589951 -1.85916 0 -0.658857 -1.97191 0 -0.669232 -1.99275 0 -0.621078 -1.92167 0 -0.572924 -1.8506 0 -0.524769 -1.77953 0 -0.476615 -1.70845 0 -0.42846 -1.63738 0 -0.380306 -1.5663 0 -0.332151 -1.49523 0 -0.283997 -1.42416 0 -0.235842 -1.35308 0 </DataArray> 
</PointData> 
<Points> 
<DataArray type="Float32" NumberOfComponents="3"> 
1 0 0 1.05263 0 0 1.10526 0 0 1.15789 0 0 1.21053 0 0 1.26316 0 0 1.31579 0 0 1.36842 0 0 1.42105 0 0 1.47368 0 0 1.52632 0 0 1.57895 0 0 1.63158 0 0 1.68421 0 0 1.73684 0 0 1.78947 0 0 1.84211 0 0 1.89474 0 0 1.94737 0 0 2 0 0 0.997147 0.0754898 0 1.04963 0.079463 0 1.10211 0.0834361 0 1.15459 0.0874093 0 1.20707 0.0913824 0 1.25955 0.0953555 0 1.31203 0.0993287 0 1.36452 0.103302 0 1.417 0.107275 0 1.46948 0.111248 0 1.52196 0.115221 0 1.57444 0.119194 0 1.62692 0.123168 0 1.6794 0.127141 0 1.73189 0.131114 0 1.78437 0.135087 0 1.83685 0.13906 0 1.88933 0.143033 0 1.94181 0.147006 0 1.99429 0.15098 0 0.988273 0.1527 0 1.04029 0.160736 0 1.0923 0.168773 0 1.14432 0.17681 0 1.19633 0.184847 0 1.24834 0.192884 0 1.30036 0.20092 0 1.35237 0.208957 0 1.40439 0.216994 0 1.4564 0.225031 0 1.50842 0.233068 0 1.56043 0.241105 0 1.61244 0.249141 0 1.66446 0.257178 0 1.71647 0.265215 0 1.76849 0.273252 0 1.8205 0.281289 0 1.87252 0.289325 0 1.92453 0.297362 0 1.97655 0.305399 0 0.972963 0.230959 0 1.02417 0.243115 0 1.07538 0.255271 0 1.12659 0.267427 0 1.1778 0.279582 0 1.22901 0.291738 0 1.28022 0.303894 0 1.33142 0.31605 0 1.38263 0.328205 0 1.43384 0.340361 0 1.48505 0.352517 0 1.53626 0.364673 0 1.58747 0.376828 0 1.63868 0.388984 0 1.68988 0.40114 0 1.74109 0.413296 0 1.7923 0.425451 0 1.84351 0.437607 0 1.89472 0.449763 0 1.94593 0.461919 0 0.950898 0.309504 0 1.00095 0.325794 0 1.05099 0.342084 0 1.10104 0.358373 0 1.15109 0.374663 0 1.20113 0.390953 0 1.25118 0.407242 0 1.30123 0.423532 0 1.35128 0.439822 0 1.40132 0.456111 0 1.45137 0.472401 0 1.50142 0.488691 0 1.55147 0.504981 0 1.60151 0.52127 0 1.65156 0.53756 0 1.70161 0.55385 0 1.75165 0.570139 0 1.8017 0.586429 0 1.85175 0.602719 0 1.9018 0.619008 0 0.921874 0.38749 0 0.970393 0.407885 0 1.01891 0.428279 0 1.06743 0.448673 0 1.11595 0.469067 0 1.16447 0.489461 0 1.21299 0.509856 0 1.26151 0.53025 0 1.31003 0.550644 0 1.35855 0.571038 0 1.40707 0.591433 0 1.45559 0.611827 0 1.50411 0.632221 0 1.55263 0.652615 0 1.60115 0.67301 0 1.64967 0.693404 0 1.69819 0.713798 0 1.74671 0.734192 0 1.79523 0.754586 0 1.84375 0.774981 0 0.885826 0.464017 0 0.932449 0.488439 0 0.979071 0.512861 0 1.02569 0.537283 0 1.07232 0.561705 0 1.11894 0.586127 0 1.16556 0.610549 0 1.21218 0.634971 0 1.25881 0.659393 0 1.30543 0.683815 0 1.35205 0.708237 0 1.39867 0.732659 0 1.4453 0.757081 0 1.49192 0.781503 0 1.53854 0.805925 0 1.58516 0.830347 0 1.63179 0.854769 0 1.67841 0.879191 0 1.72503 0.903613 0 1.77165 0.928035 0 0.842845 0.538157 0 0.887205 0.566481 0 0.931565 0.594805 0 0.975926 0.623129 0 1.02029 0.651453 0 1.06465 0.679777 0 1.10901 0.708101 0 1.15337 0.736425 0 1.19773 0.764749 0 1.24209 0.793073 0 1.28645 0.821397 0 1.33081 0.849721 0 1.37517 0.878045 0 1.41953 0.906369 0 1.46389 0.934693 0 1.50825 0.963017 0 1.55261 0.991341 0 1.59697 1.01966 0 1.64133 1.04799 0 1.68569 1.07631 0 0.793182 0.608985 0 0.834928 0.641037 0 0.876675 0.673088 0 0.918421 0.70514 0 0.960168 0.737192 0 1.00191 0.769244 0 1.04366 0.801296 0 1.08541 0.833347 0 1.12715 0.865399 0 1.1689 0.897451 0 1.21065 0.929503 0 1.25239 0.961555 0 1.29414 0.993607 0 1.33589 1.02566 0 1.37763 1.05771 0 1.41938 1.08976 0 1.46112 1.12181 0 1.50287 1.15387 0 1.54462 1.18592 0 1.58636 1.21797 0 0.737251 0.675619 0 0.776054 0.711178 0 0.814857 0.746737 0 0.853659 0.782295 0 0.892462 0.817854 0 0.931265 0.853413 0 0.970067 0.888972 0 1.00887 0.924531 0 1.04767 0.96009 0 1.08648 0.995649 0 1.12528 1.03121 0 1.16408 1.06677 0 1.20288 1.10233 0 1.24169 1.13788 0 1.28049 1.17344 0 1.31929 1.209 0 1.35809 1.24456 0 1.3969 1.28012 0 1.4357 1.31568 0 1.4745 1.35124 0 0.675619 0.737251 0 0.711178 0.776054 0 0.746737 0.814857 0 0.782295 0.853659 0 0.817854 0.892462 0 0.853413 0.931265 0 0.888972 0.970067 0 0.924531 1.00887 0 0.96009 1.04767 0 0.995649 1.08648 0 1.03121 1.12528 0 1.06677 1.16408 0 1.10233 1.20288 0 1.13788 1.24169 0 1.17344 1.28049 0 1.209 1.31929 0 1.24456 1.35809 0 1.28012 1.3969 0 1.31568 1.4357 0 1.35124 1.4745 0 0.608985 0.793182 0 0.641037 0.834928 0 0.673088 0.876675 0 0.70514 0.918421 0 0.737192 0.960168 0 0.769244 1.00191 0 0.801296 1.04366 0 0.833347 1.08541 0 0.865399 1.12715 0 0.897451 1.1689 0 0.929503 1.21065 0 0.961555 1.25239 0 0.993607 1.29414 0 1.02566 1.33589 0 1.05771 1.37763 0 1.08976 1.41938 0 1.12181 1.46112 0 1.15387 1.50287 0 1.18592 1.54462 0 1.21797 1.58636 0 0.538157 0.842845 0 0.566481 0.887205 0 0.594805 0.931565 0 0.623129 0.975926 0 0.651453 1.02029 0 0.679777 1.06465 0 0.708101 1.10901 0 0.736425 1.15337 0 0.764749 1.19773 0 0.793073 1.24209 0 0.821397 1.28645 0 0.849721 1.33081 0 0.878045 1.37517 0 0.906369 1.41953 0 0.934693 1.46389 0 0.963017 1.50825 0 0.991341 1.55261 0 1.01966 1.59697 0 1.04799 1.64133 0 1.07631 1.68569 0 0.464017 0.885826 0 0.488439 0.932449 0 0.512861 0.979071 0 0.537283 1.02569 0 0.561705 1.07232 0 0.586127 1.11894 0 0.610549 1.16556 0 0.634971 1.21218 0 0.659393 1.25881 0 0.683815 1.30543 0 0.708237 1.35205 0 0.732659 1.39867 0 0.757081 1.4453 0 0.781503 1.49192 0 0.805925 1.53854 0 0.830347 1.58516 0 0.854769 1.63179 0 0.879191 1.67841 0 0.903613 1.72503 0 0.928035 1.77165 0 0.38749 0.921874 0 0.407885 0.970393 0 0.428279 1.01891 0 0.448673 1.06743 0 0.469067 1.11595 0 0.489461 1.16447 0 0.509856 1.21299 0 0.53025 1.26151 0 0.550644 1.31003 0 0.571038 1.35855 0 0.591433 1.40707 0 0.611827 1.45559 0 0.632221 1.50411 0 0.652615 1.55263 0 0.67301 1.60115 0 0.693404 1.64967 0 0.713798 1.69819 0 0.734192 1.74671 0 0.754586 1.79523 0 0.774981 1.84375 0 0.309504 0.950898 0 0.325794 1.00095 0 0.342084 1.05099 0 0.358373 1.10104 0 0.374663 1.15109 0 0.390953 1.20113 0 0.407242 1.25118 0 0.423532 1.30123 0 0.439822 1.35128 0 0.456111 1.40132 0 0.472401 1.45137 0 0.488691 1.50142 0 0.504981 1.55147 0 0.52127 1.60151 0 0.53756 1.65156 0 0.55385 1.70161 0 0.570139 1.75165 0 0.586429 1.8017 0 0.602719 1.85175 0 0.619008 1.9018 0 0.230959 0.972963 0 0.243115 1.02417 0 0.255271 1.07538 0 0.267427 1.12659 0 0.279582 1.1778 0 0.291738 1.22901 0 0.303894 1.28022 0 0.31605 1.33142 0 0.328205 1.38263 0 0.340361 1.43384 0 0.352517 1.48505 0 0.364673 1.53626 0 0.376828 1.58747 0 0.388984 1.63868 0 0.40114 1.68988 0 0.413296 1.74109 0 0.425451 1.7923 0 0.437607 1.84351 0 0.449763 1.89472 0 0.461919 1.94593 0 0.1527 0.988273 0 0.160736 1.04029 0 0.168773 1.0923 0 0.17681 1.14432 0 0.184847 1.19633 0 0.192884 1.24834 0 0.20092 1.30036 0 0.208957 1.35237 0 0.216994 1.40439 0 0.225031 1.4564 0 0.233068 1.50842 0 0.241105 1.56043 0 0.249141 1.61244 0 0.257178 1.66446 0 0.265215 1.71647 0 0.273252 1.76849 0 0.281289 1.8205 0 0.289325 1.87252 0 0.297362 1.92453 0 0.305399 1.97655 0 0.0754898 0.997147 0 0.079463 1.04963 0 0.0834361 1.10211 0 0.0874093 1.15459 0 0.0913824 1.20707 0 0.0953555 1.25955 0 0.0993287 1.31203 0 0.103302 1.36452 0 0.107275 1.417 0 0.111248 1.46948 0 0.115221 1.52196 0 0.119194 1.57444 0 0.123168 1.62692 0 0.127141 1.6794 0 0.131114 1.73189 0 0.135087 1.78437 0 0.13906 1.83685 0 0.143033 1.88933 0 0.147006 1.94181 0 0.15098 1.99429 0 0 1 0 0 1.05263 0 0 1.10526 0 0 1.15789 0 0 1.21053 0 0 1.26316 0 0 1.31579 0 0 1.36842 0 0 1.42105 0 0 1.47368 0 0 1.52632 0 0 1.57895 0 0 1.63158 0 0 1.68421 0 0 1.73684 0 0 1.78947 0 0 1.84211 0 0 1.89474 0 0 1.94737 0 0 2 0 
</DataArray>
</Points> 
</Piece> 
</StructuredGrid> 
</VTKFile> 
