<?xml version="1.0"?> 
<VTKFile type="StructuredGrid" version="0.1"> 
<StructuredGrid WholeExtent="0 19 0 19 0 0"> 
<Piece Extent="0 19 0 19 0 0"> 
<PointData>
<DataArray type="Float32" Name="u" format="ascii" NumberOfComponents="3"> 
0.841471 0.841471 0 0.86873 0.86873 0 0.893583 0.893583 0 0.91596 0.91596 0 0.935802 0.935802 0 0.953051 0.953051 0 0.967662 0.967662 0 0.979592 0.979592 0 0.988809 0.988809 0 0.995288 0.995288 0 0.999011 0.999011 0 0.999967 0.999967 0 0.998153 0.998153 0 0.993576 0.993576 0 0.986246 0.986246 0 0.976185 0.976185 0 0.963421 0.963421 0 0.947989 0.947989 0 0.929931 0.929931 0 0.909297 0.909297 0 1.01291 0.907945 0 1.01987 0.858747 0 1.03612 0.866054 0 1.05469 0.886429 0 1.07247 0.908345 0 1.08788 0.931259 0 1.1005 0.953782 0 1.11045 0.974222 0 1.11777 0.992082 0 1.12243 1.00762 0 1.12449 1.02074 0 1.12409 1.03107 0 1.12139 1.0383 0 1.11655 1.04229 0 1.10983 1.04265 0 1.10164 1.03864 0 1.09258 1.02905 0 1.08357 1.01185 0 1.07581 0.982399 0 1.07104 0.928898 0 1.11799 0.851974 0 1.14407 0.827247 0 1.16072 0.831245 0 1.1747 0.850201 0 1.18717 0.8765 0 1.19745 0.905024 0 1.20555 0.933497 0 1.21179 0.96102 0 1.21621 0.986925 0 1.21872 1.0107 0 1.21939 1.03196 0 1.21846 1.05043 0 1.21617 1.06572 0 1.21279 1.07732 0 1.20863 1.08456 0 1.20411 1.08657 0 1.19962 1.08225 0 1.19556 1.07008 0 1.19185 1.04865 0 1.18697 1.01703 0 1.19021 0.744686 0 1.22509 0.755839 0 1.243 0.773234 0 1.25416 0.799539 0 1.26197 0.831976 0 1.26737 0.866194 0 1.27091 0.900385 0 1.27297 0.933948 0 1.27368 0.966267 0 1.27303 0.996718 0 1.2711 1.02485 0 1.26805 1.05038 0 1.26406 1.07287 0 1.2593 1.09178 0 1.25393 1.10649 0 1.24814 1.1163 0 1.242 1.12049 0 1.23541 1.11837 0 1.22785 1.11014 0 1.21774 1.09879 0 1.23326 0.605141 0 1.26118 0.644794 0 1.27705 0.684729 0 1.28539 0.724819 0 1.289 0.765034 0 1.28993 0.805326 0 1.28903 0.84521 0 1.28662 0.884017 0 1.2829 0.921397 0 1.27801 0.957197 0 1.27202 0.991148 0 1.26491 1.02288 0 1.25668 1.05203 0 1.24732 1.07827 0 1.23678 1.10122 0 1.22499 1.12046 0 1.21181 1.1356 0 1.19695 1.14638 0 1.18037 1.15246 0 1.16264 1.15322 0 1.24073 0.434032 0 1.25656 0.501706 0 1.2648 0.562363 0 1.26715 0.616479 0 1.26538 0.665923 0 1.26117 0.712862 0 1.25523 0.758014 0 1.24782 0.801411 0 1.23908 0.843191 0 1.22907 0.883544 0 1.21776 0.92247 0 1.20503 0.959796 0 1.19076 0.995362 0 1.17479 1.02903 0 1.15699 1.06062 0 1.13717 1.08993 0 1.11514 1.11678 0 1.09073 1.14103 0 1.06404 1.1621 0 1.03598 1.17806 0 1.21425 0.238009 0 1.21492 0.330925 0 1.21076 0.406999 0 1.20384 0.472448 0 1.195 0.530567 0 1.1846 0.583551 0 1.17284 0.632932 0 1.15979 0.679884 0 1.14538 0.725094 0 1.12943 0.768933 0 1.11175 0.81168 0 1.09215 0.853539 0 1.07043 0.894617 0 1.04639 0.934915 0 1.01984 0.974409 0 0.990595 1.01304 0 0.958531 1.05073 0 0.923595 1.08734 0 0.885661 1.12271 0 0.844349 1.15662 0 1.15977 0.0271049 0 1.14031 0.135796 0 1.12145 0.22228 0 1.10353 0.295137 0 1.0861 0.358568 0 1.06849 0.415185 0 1.05021 0.467042 0 1.03087 0.515874 0 1.01008 0.562761 0 0.987422 0.608358 0 0.962539 0.653211 0 0.935116 0.697772 0 0.904857 0.742367 0 0.871489 0.787172 0 0.834757 0.832329 0 0.79444 0.877936 0 0.750344 0.924038 0 0.702339 0.970576 0 0.650095 1.01772 0 0.592681 1.06631 0 1.08114 -0.189492 0 1.03937 -0.0762182 0 1.00558 0.0146916 0 0.976415 0.0901054 0 0.94995 0.154562 0 0.924784 0.211632 0 0.899774 0.263625 0 0.873919 0.312211 0 0.846467 0.358653 0 0.816826 0.403937 0 0.784468 0.448813 0 0.748918 0.493824 0 0.709752 0.539432 0 0.666606 0.586009 0 0.619131 0.633881 0 0.566996 0.683305 0 0.509861 0.734499 0 0.447364 0.787615 0 0.379122 0.842885 0 0.304705 0.900792 0 0.981004 -0.403174 0 0.920587 -0.294766 0 0.873441 -0.207106 0 0.834263 -0.134609 0 0.799881 -0.07301 0 0.767943 -0.0186734 0 0.736725 0.0306669 0 0.704839 0.0766002 0 0.671241 0.120421 0 0.63512 0.163223 0 0.595788 0.205843 0 0.552667 0.248897 0 0.505239 0.292946 0 0.453054 0.338492 0 0.395679 0.385993 0 0.332707 0.435846 0 0.263707 0.488446 0 0.188194 0.544187 0 0.105823 0.603356 0 0.0166682 0.665918 0 0.864442 -0.604174 0 0.791995 -0.508806 0 0.735207 -0.431572 0 0.688756 -0.367045 0 0.648679 -0.311776 0 0.611644 -0.263096 0 0.575527 -0.21905 0 0.538806 -0.178055 0 0.500261 -0.138903 0 0.458875 -0.100633 0 0.413847 -0.06243 0 0.364566 -0.0236011 0 0.310473 0.0164752 0 0.251067 0.0583447 0 0.18588 0.102529 0 0.114491 0.149517 0 0.0364815 0.199821 0 -0.0485776 0.254005 0 -0.140995 0.312481 0 -0.240735 0.375212 0 0.738567 -0.782099 0 0.660953 -0.70708 0 0.600565 -0.645012 0 0.55105 -0.592161 0 0.50811 -0.546283 0 0.46831 -0.505678 0 0.429395 -0.4689 0 0.389706 -0.434647 0 0.347965 -0.401919 0 0.303149 -0.369911 0 0.254445 -0.337884 0 0.20122 -0.305154 0 0.142914 -0.271103 0 0.0790451 -0.235184 0 0.00917215 -0.19687 0 -0.0670919 -0.155653 0 -0.150101 -0.111015 0 -0.240151 -0.0624226 0 -0.337612 -0.00933148 0 -0.443095 0.0488214 0 0.608892 -0.929109 0 0.534144 -0.878752 0 0.476849 -0.834287 0 0.429025 -0.795265 0 0.386552 -0.760786 0 0.346726 -0.72982 0 0.307468 -0.701533 0 0.267037 -0.675189 0 0.224249 -0.650075 0 0.178278 -0.625499 0 0.128411 -0.600823 0 0.0740297 -0.575462 0 0.0146178 -0.548854 0 -0.0502209 -0.520467 0 -0.120853 -0.489793 0 -0.197608 -0.456349 0 -0.28077 -0.419691 0 -0.370533 -0.379438 0 -0.467335 -0.335003 0 -0.57235 -0.285163 0 0.478856 -1.04048 0 0.41723 -1.01383 0 0.368475 -0.987427 0 0.326583 -0.96269 0 0.288269 -0.939899 0 0.251277 -0.918933 0 0.213966 -0.89957 0 0.175022 -0.881525 0 0.133549 -0.864373 0 0.0889213 -0.847598 0 0.0406049 -0.830695 0 -0.0118597 -0.813169 0 -0.0688579 -0.794516 0 -0.130693 -0.774221 0 -0.197652 -0.751776 0 -0.270006 -0.726689 0 -0.348008 -0.698506 0 -0.43188 -0.666864 0 -0.521836 -0.631307 0 -0.618083 -0.591099 0 0.353268 -1.11161 0 0.313455 -1.10489 0 0.277691 -1.09498 0 0.245167 -1.0834 0 0.21404 -1.07135 0 0.182248 -1.05985 0 0.148841 -1.04914 0 0.113399 -1.03914 0 0.0754663 -1.02962 0 0.0345702 -1.02032 0 -0.00960149 -1.01088 0 -0.0572226 -1.00087 0 -0.108477 -0.989833 0 -0.163564 -0.977302 0 -0.222678 -0.962771 0 -0.286 -0.945703 0 -0.353757 -0.925551 0 -0.426265 -0.901757 0 -0.50337 -0.874056 0 -0.583526 -0.843023 0 0.23902 -1.13763 0 0.222655 -1.148 0 0.203912 -1.1509 0 0.183108 -1.14997 0 0.160075 -1.14729 0 0.134515 -1.14429 0 0.106457 -1.14144 0 0.0760614 -1.13876 0 0.0432848 -1.13616 0 0.00795274 -1.1335 0 -0.0300095 -1.13054 0 -0.0705887 -1.12699 0 -0.113778 -1.12252 0 -0.159579 -1.11679 0 -0.207984 -1.1094 0 -0.258958 -1.09989 0 -0.312542 -1.08773 0 -0.368932 -1.07223 0 -0.428259 -1.05289 0 -0.490414 -1.02991 0 0.139473 -1.11898 0 0.145474 -1.14172 0 0.144928 -1.15269 0 0.135938 -1.15952 0 0.120367 -1.16475 0 0.10115 -1.16914 0 0.0793556 -1.17303 0 0.0551656 -1.17658 0 0.0287931 -1.17976 0 0.000469291 -1.18237 0 -0.0296878 -1.18429 0 -0.0616545 -1.1854 0 -0.0953007 -1.18558 0 -0.130368 -1.18471 0 -0.166547 -1.18262 0 -0.203456 -1.17912 0 -0.240719 -1.17388 0 -0.27798 -1.16636 0 -0.315927 -1.15555 0 -0.35824 -1.13926 0 0.0511786 -1.06564 0 0.0849384 -1.08786 0 0.096125 -1.10301 0 0.0945611 -1.11619 0 0.0856126 -1.12839 0 0.0728351 -1.13924 0 0.0577116 -1.14876 0 0.0407243 -1.15717 0 0.0221977 -1.16443 0 0.00235409 -1.17037 0 -0.0186607 -1.17489 0 -0.0407623 -1.17803 0 -0.0637586 -1.17979 0 -0.0873286 -1.18018 0 -0.111003 -1.17923 0 -0.134091 -1.177 0 -0.155672 -1.17353 0 -0.174375 -1.16882 0 -0.188947 -1.16228 0 -0.198637 -1.15174 0 -0.0138327 -0.980042 0 0.0401835 -0.992183 0 0.0512157 -1.01001 0 0.0508616 -1.0289 0 0.0474159 -1.04683 0 0.0411541 -1.06275 0 0.0329943 -1.07639 0 0.02409 -1.08786 0 0.0147227 -1.09715 0 0.00462555 -1.10419 0 -0.00619731 -1.10894 0 -0.0175018 -1.1114 0 -0.0291094 -1.11157 0 -0.0409231 -1.10946 0 -0.0526107 -1.10512 0 -0.0634666 -1.09872 0 -0.0723022 -1.09058 0 -0.0769819 -1.08134 0 -0.0725405 -1.07185 0 -0.046216 -1.06349 0 0 -0.841471 0 0 -0.86873 0 0 -0.893583 0 0 -0.91596 0 0 -0.935802 0 0 -0.953051 0 0 -0.967662 0 0 -0.979592 0 0 -0.988809 0 0 -0.995288 0 0 -0.999011 0 0 -0.999967 0 0 -0.998153 0 0 -0.993576 0 0 -0.986246 0 0 -0.976185 0 0 -0.963421 0 0 -0.947989 0 0 -0.929931 0 0 -0.909297 0 </DataArray> 
</PointData> 
<Points> 
<DataArray type="Float32" NumberOfComponents="3"> 
1 0 0 1.05263 0 0 1.10526 0 0 1.15789 0 0 1.21053 0 0 1.26316 0 0 1.31579 0 0 1.36842 0 0 1.42105 0 0 1.47368 0 0 1.52632 0 0 1.57895 0 0 1.63158 0 0 1.68421 0 0 1.73684 0 0 1.78947 0 0 1.84211 0 0 1.89474 0 0 1.94737 0 0 2 0 0 0.997147 0.0754898 0 1.04963 0.079463 0 1.10211 0.0834361 0 1.15459 0.0874093 0 1.20707 0.0913824 0 1.25955 0.0953555 0 1.31203 0.0993287 0 1.36452 0.103302 0 1.417 0.107275 0 1.46948 0.111248 0 1.52196 0.115221 0 1.57444 0.119194 0 1.62692 0.123168 0 1.6794 0.127141 0 1.73189 0.131114 0 1.78437 0.135087 0 1.83685 0.13906 0 1.88933 0.143033 0 1.94181 0.147006 0 1.99429 0.15098 0 0.988273 0.1527 0 1.04029 0.160736 0 1.0923 0.168773 0 1.14432 0.17681 0 1.19633 0.184847 0 1.24834 0.192884 0 1.30036 0.20092 0 1.35237 0.208957 0 1.40439 0.216994 0 1.4564 0.225031 0 1.50842 0.233068 0 1.56043 0.241105 0 1.61244 0.249141 0 1.66446 0.257178 0 1.71647 0.265215 0 1.76849 0.273252 0 1.8205 0.281289 0 1.87252 0.289325 0 1.92453 0.297362 0 1.97655 0.305399 0 0.972963 0.230959 0 1.02417 0.243115 0 1.07538 0.255271 0 1.12659 0.267427 0 1.1778 0.279582 0 1.22901 0.291738 0 1.28022 0.303894 0 1.33142 0.31605 0 1.38263 0.328205 0 1.43384 0.340361 0 1.48505 0.352517 0 1.53626 0.364673 0 1.58747 0.376828 0 1.63868 0.388984 0 1.68988 0.40114 0 1.74109 0.413296 0 1.7923 0.425451 0 1.84351 0.437607 0 1.89472 0.449763 0 1.94593 0.461919 0 0.950898 0.309504 0 1.00095 0.325794 0 1.05099 0.342084 0 1.10104 0.358373 0 1.15109 0.374663 0 1.20113 0.390953 0 1.25118 0.407242 0 1.30123 0.423532 0 1.35128 0.439822 0 1.40132 0.456111 0 1.45137 0.472401 0 1.50142 0.488691 0 1.55147 0.504981 0 1.60151 0.52127 0 1.65156 0.53756 0 1.70161 0.55385 0 1.75165 0.570139 0 1.8017 0.586429 0 1.85175 0.602719 0 1.9018 0.619008 0 0.921874 0.38749 0 0.970393 0.407885 0 1.01891 0.428279 0 1.06743 0.448673 0 1.11595 0.469067 0 1.16447 0.489461 0 1.21299 0.509856 0 1.26151 0.53025 0 1.31003 0.550644 0 1.35855 0.571038 0 1.40707 0.591433 0 1.45559 0.611827 0 1.50411 0.632221 0 1.55263 0.652615 0 1.60115 0.67301 0 1.64967 0.693404 0 1.69819 0.713798 0 1.74671 0.734192 0 1.79523 0.754586 0 1.84375 0.774981 0 0.885826 0.464017 0 0.932449 0.488439 0 0.979071 0.512861 0 1.02569 0.537283 0 1.07232 0.561705 0 1.11894 0.586127 0 1.16556 0.610549 0 1.21218 0.634971 0 1.25881 0.659393 0 1.30543 0.683815 0 1.35205 0.708237 0 1.39867 0.732659 0 1.4453 0.757081 0 1.49192 0.781503 0 1.53854 0.805925 0 1.58516 0.830347 0 1.63179 0.854769 0 1.67841 0.879191 0 1.72503 0.903613 0 1.77165 0.928035 0 0.842845 0.538157 0 0.887205 0.566481 0 0.931565 0.594805 0 0.975926 0.623129 0 1.02029 0.651453 0 1.06465 0.679777 0 1.10901 0.708101 0 1.15337 0.736425 0 1.19773 0.764749 0 1.24209 0.793073 0 1.28645 0.821397 0 1.33081 0.849721 0 1.37517 0.878045 0 1.41953 0.906369 0 1.46389 0.934693 0 1.50825 0.963017 0 1.55261 0.991341 0 1.59697 1.01966 0 1.64133 1.04799 0 1.68569 1.07631 0 0.793182 0.608985 0 0.834928 0.641037 0 0.876675 0.673088 0 0.918421 0.70514 0 0.960168 0.737192 0 1.00191 0.769244 0 1.04366 0.801296 0 1.08541 0.833347 0 1.12715 0.865399 0 1.1689 0.897451 0 1.21065 0.929503 0 1.25239 0.961555 0 1.29414 0.993607 0 1.33589 1.02566 0 1.37763 1.05771 0 1.41938 1.08976 0 1.46112 1.12181 0 1.50287 1.15387 0 1.54462 1.18592 0 1.58636 1.21797 0 0.737251 0.675619 0 0.776054 0.711178 0 0.814857 0.746737 0 0.853659 0.782295 0 0.892462 0.817854 0 0.931265 0.853413 0 0.970067 0.888972 0 1.00887 0.924531 0 1.04767 0.96009 0 1.08648 0.995649 0 1.12528 1.03121 0 1.16408 1.06677 0 1.20288 1.10233 0 1.24169 1.13788 0 1.28049 1.17344 0 1.31929 1.209 0 1.35809 1.24456 0 1.3969 1.28012 0 1.4357 1.31568 0 1.4745 1.35124 0 0.675619 0.737251 0 0.711178 0.776054 0 0.746737 0.814857 0 0.782295 0.853659 0 0.817854 0.892462 0 0.853413 0.931265 0 0.888972 0.970067 0 0.924531 1.00887 0 0.96009 1.04767 0 0.995649 1.08648 0 1.03121 1.12528 0 1.06677 1.16408 0 1.10233 1.20288 0 1.13788 1.24169 0 1.17344 1.28049 0 1.209 1.31929 0 1.24456 1.35809 0 1.28012 1.3969 0 1.31568 1.4357 0 1.35124 1.4745 0 0.608985 0.793182 0 0.641037 0.834928 0 0.673088 0.876675 0 0.70514 0.918421 0 0.737192 0.960168 0 0.769244 1.00191 0 0.801296 1.04366 0 0.833347 1.08541 0 0.865399 1.12715 0 0.897451 1.1689 0 0.929503 1.21065 0 0.961555 1.25239 0 0.993607 1.29414 0 1.02566 1.33589 0 1.05771 1.37763 0 1.08976 1.41938 0 1.12181 1.46112 0 1.15387 1.50287 0 1.18592 1.54462 0 1.21797 1.58636 0 0.538157 0.842845 0 0.566481 0.887205 0 0.594805 0.931565 0 0.623129 0.975926 0 0.651453 1.02029 0 0.679777 1.06465 0 0.708101 1.10901 0 0.736425 1.15337 0 0.764749 1.19773 0 0.793073 1.24209 0 0.821397 1.28645 0 0.849721 1.33081 0 0.878045 1.37517 0 0.906369 1.41953 0 0.934693 1.46389 0 0.963017 1.50825 0 0.991341 1.55261 0 1.01966 1.59697 0 1.04799 1.64133 0 1.07631 1.68569 0 0.464017 0.885826 0 0.488439 0.932449 0 0.512861 0.979071 0 0.537283 1.02569 0 0.561705 1.07232 0 0.586127 1.11894 0 0.610549 1.16556 0 0.634971 1.21218 0 0.659393 1.25881 0 0.683815 1.30543 0 0.708237 1.35205 0 0.732659 1.39867 0 0.757081 1.4453 0 0.781503 1.49192 0 0.805925 1.53854 0 0.830347 1.58516 0 0.854769 1.63179 0 0.879191 1.67841 0 0.903613 1.72503 0 0.928035 1.77165 0 0.38749 0.921874 0 0.407885 0.970393 0 0.428279 1.01891 0 0.448673 1.06743 0 0.469067 1.11595 0 0.489461 1.16447 0 0.509856 1.21299 0 0.53025 1.26151 0 0.550644 1.31003 0 0.571038 1.35855 0 0.591433 1.40707 0 0.611827 1.45559 0 0.632221 1.50411 0 0.652615 1.55263 0 0.67301 1.60115 0 0.693404 1.64967 0 0.713798 1.69819 0 0.734192 1.74671 0 0.754586 1.79523 0 0.774981 1.84375 0 0.309504 0.950898 0 0.325794 1.00095 0 0.342084 1.05099 0 0.358373 1.10104 0 0.374663 1.15109 0 0.390953 1.20113 0 0.407242 1.25118 0 0.423532 1.30123 0 0.439822 1.35128 0 0.456111 1.40132 0 0.472401 1.45137 0 0.488691 1.50142 0 0.504981 1.55147 0 0.52127 1.60151 0 0.53756 1.65156 0 0.55385 1.70161 0 0.570139 1.75165 0 0.586429 1.8017 0 0.602719 1.85175 0 0.619008 1.9018 0 0.230959 0.972963 0 0.243115 1.02417 0 0.255271 1.07538 0 0.267427 1.12659 0 0.279582 1.1778 0 0.291738 1.22901 0 0.303894 1.28022 0 0.31605 1.33142 0 0.328205 1.38263 0 0.340361 1.43384 0 0.352517 1.48505 0 0.364673 1.53626 0 0.376828 1.58747 0 0.388984 1.63868 0 0.40114 1.68988 0 0.413296 1.74109 0 0.425451 1.7923 0 0.437607 1.84351 0 0.449763 1.89472 0 0.461919 1.94593 0 0.1527 0.988273 0 0.160736 1.04029 0 0.168773 1.0923 0 0.17681 1.14432 0 0.184847 1.19633 0 0.192884 1.24834 0 0.20092 1.30036 0 0.208957 1.35237 0 0.216994 1.40439 0 0.225031 1.4564 0 0.233068 1.50842 0 0.241105 1.56043 0 0.249141 1.61244 0 0.257178 1.66446 0 0.265215 1.71647 0 0.273252 1.76849 0 0.281289 1.8205 0 0.289325 1.87252 0 0.297362 1.92453 0 0.305399 1.97655 0 0.0754898 0.997147 0 0.079463 1.04963 0 0.0834361 1.10211 0 0.0874093 1.15459 0 0.0913824 1.20707 0 0.0953555 1.25955 0 0.0993287 1.31203 0 0.103302 1.36452 0 0.107275 1.417 0 0.111248 1.46948 0 0.115221 1.52196 0 0.119194 1.57444 0 0.123168 1.62692 0 0.127141 1.6794 0 0.131114 1.73189 0 0.135087 1.78437 0 0.13906 1.83685 0 0.143033 1.88933 0 0.147006 1.94181 0 0.15098 1.99429 0 0 1 0 0 1.05263 0 0 1.10526 0 0 1.15789 0 0 1.21053 0 0 1.26316 0 0 1.31579 0 0 1.36842 0 0 1.42105 0 0 1.47368 0 0 1.52632 0 0 1.57895 0 0 1.63158 0 0 1.68421 0 0 1.73684 0 0 1.78947 0 0 1.84211 0 0 1.89474 0 0 1.94737 0 0 2 0 
</DataArray>
</Points> 
</Piece> 
</StructuredGrid> 
</VTKFile> 
