<?xml version="1.0"?> 
<VTKFile type="StructuredGrid" version="0.1"> 
<StructuredGrid WholeExtent="0 19 0 19 0 0"> 
<Piece Extent="0 19 0 19 0 0"> 
<PointData>
<DataArray type="Float32" Name="u" format="ascii" NumberOfComponents="3"> 
0.841471 0.841471 0 0.898543 1.13837 0 0.854174 1.01731 0 0.881656 1.02807 0 0.906307 1.04264 0 0.947487 1.06244 0 0.961295 1.0918 0 0.95783 1.12214 0 0.942146 1.14692 0 0.91297 1.16476 0 0.879958 1.17879 0 0.847381 1.20144 0 0.816518 1.25558 0 0.766276 1.34991 0 0.659344 1.46798 0 0.453396 1.54713 0 0.110392 1.43174 0 -0.230373 0.962813 0 -0.223124 0.173742 0 0.909298 0.9093 0 0.837534 0.796605 0 0.963896 0.903207 0 1.08776 1.0154 0 1.16342 1.07999 0 1.21971 1.11626 0 1.2582 1.16129 0 1.29298 1.21255 0 1.32254 1.26728 0 1.34423 1.32184 0 1.35629 1.37211 0 1.35568 1.41688 0 1.34295 1.45964 0 1.32352 1.50994 0 1.31064 1.57856 0 1.31935 1.66751 0 1.35777 1.76152 0 1.41726 1.8209 0 1.41939 1.74391 0 1.26949 1.51912 0 0.901287 0.963097 0 0.825359 0.74168 0 0.710883 0.708428 0 0.66377 0.717818 0 0.647458 0.756309 0 0.625622 0.786956 0 0.600964 0.812632 0 0.568211 0.834234 0 0.530696 0.855801 0 0.49037 0.878508 0 0.446776 0.899851 0 0.400481 0.915552 0 0.353393 0.920452 0 0.310574 0.91129 0 0.281328 0.889481 0 0.276543 0.86436 0 0.305992 0.850787 0 0.378509 0.861776 0 0.492846 0.933608 0 0.655093 0.942167 0 0.876291 0.99497 0 0.804609 0.675765 0 0.84563 0.797717 0 0.856632 0.757921 0 0.866852 0.830965 0 0.871678 0.864096 0 0.878378 0.909801 0 0.881199 0.950715 0 0.881902 0.986008 0 0.883077 1.01876 0 0.886796 1.04881 0 0.895497 1.07528 0 0.909429 1.09579 0 0.927442 1.10704 0 0.94545 1.10624 0 0.95938 1.0934 0 0.966941 1.06927 0 0.964098 1.03138 0 0.961306 1.00961 0 0.930667 0.96588 0 0.832944 0.996228 0 0.775264 0.598314 0 0.760861 0.655212 0 0.763109 0.632078 0 0.761577 0.703357 0 0.758499 0.718935 0 0.755977 0.752472 0 0.755605 0.785536 0 0.755902 0.81374 0 0.756553 0.837213 0 0.758449 0.855342 0 0.762162 0.870138 0 0.767869 0.883251 0 0.774782 0.896206 0 0.781813 0.909143 0 0.787479 0.921491 0 0.789537 0.933647 0 0.784992 0.946775 0 0.768567 0.958473 0 0.752335 0.984343 0 0.770245 0.958814 0 0.737667 0.509313 0 0.739715 0.610794 0 0.738856 0.538912 0 0.739063 0.605474 0 0.741617 0.631366 0 0.741816 0.654414 0 0.742991 0.676855 0 0.746179 0.700026 0 0.75079 0.723175 0 0.755646 0.743861 0 0.75947 0.761162 0 0.761581 0.775434 0 0.761734 0.787584 0 0.759512 0.799441 0 0.754557 0.811807 0 0.746728 0.824589 0 0.735965 0.840015 0 0.727351 0.84245 0 0.717256 0.865068 0 0.687993 0.876626 0 0.69255 0.409411 0 0.697693 0.492687 0 0.711412 0.445836 0 0.705197 0.505279 0 0.707267 0.508663 0 0.710033 0.534218 0 0.711727 0.553375 0 0.712952 0.56774 0 0.713905 0.582772 0 0.71438 0.598117 0 0.714068 0.614469 0 0.71197 0.631031 0 0.707234 0.647087 0 0.699421 0.662369 0 0.688429 0.676504 0 0.674499 0.690118 0 0.65839 0.706158 0 0.639525 0.711635 0 0.613033 0.748658 0 0.587357 0.747051 0 0.641019 0.299994 0 0.640372 0.393603 0 0.646855 0.278549 0 0.648327 0.371534 0 0.653889 0.368817 0 0.65479 0.386713 0 0.656424 0.402628 0 0.65649 0.415255 0 0.653906 0.427374 0 0.649306 0.437917 0 0.64222 0.448567 0 0.632891 0.45999 0 0.621152 0.472425 0 0.606914 0.486141 0 0.590179 0.499995 0 0.570724 0.513891 0 0.548285 0.533348 0 0.52266 0.533073 0 0.492619 0.585761 0 0.471441 0.572339 0 0.584487 0.183157 0 0.592302 0.291492 0 0.596958 0.160304 0 0.595669 0.227145 0 0.599009 0.225957 0 0.598765 0.233537 0 0.59754 0.241516 0 0.594839 0.249589 0 0.589708 0.258506 0 0.581663 0.266498 0 0.570198 0.273706 0 0.555433 0.280616 0 0.537643 0.287634 0 0.517036 0.295886 0 0.493756 0.304734 0 0.467804 0.31398 0 0.439167 0.330152 0 0.410805 0.321286 0 0.379723 0.370101 0 0.34551 0.360117 0 0.524575 0.0615944 0 0.543411 0.127262 0 0.554529 0.0750124 0 0.542299 0.0891827 0 0.540996 0.0733848 0 0.539274 0.0778184 0 0.534169 0.0774934 0 0.526492 0.0746382 0 0.5164 0.074179 0 0.503622 0.0756572 0 0.488207 0.0791607 0 0.469503 0.0835583 0 0.447166 0.0879974 0 0.421419 0.0923422 0 0.392525 0.0960119 0 0.36086 0.099788 0 0.327968 0.108643 0 0.291643 0.100791 0 0.251857 0.138857 0 0.216793 0.122962 0 0.46298 -0.0615944 0 0.479369 -0.019117 0 0.461216 -0.142502 0 0.473983 -0.0598243 0 0.482588 -0.0806999 0 0.476274 -0.0854406 0 0.472255 -0.0901763 0 0.464542 -0.0954136 0 0.451089 -0.100217 0 0.434207 -0.106795 0 0.41252 -0.113126 0 0.387448 -0.118364 0 0.359301 -0.122017 0 0.328337 -0.123581 0 0.294678 -0.124282 0 0.258158 -0.124849 0 0.219873 -0.120509 0 0.177258 -0.135739 0 0.139121 -0.103734 0 0.0938315 -0.122962 0 0.401329 -0.183157 0 0.423715 -0.105242 0 0.412007 -0.219917 0 0.422996 -0.215627 0 0.412111 -0.240148 0 0.41323 -0.253364 0 0.406114 -0.266715 0 0.394657 -0.280346 0 0.380862 -0.291738 0 0.362234 -0.30114 0 0.339821 -0.309275 0 0.312818 -0.316588 0 0.281459 -0.323585 0 0.24621 -0.329992 0 0.207522 -0.336324 0 0.166374 -0.342473 0 0.123699 -0.343539 0 0.076257 -0.360537 0 0.0346926 -0.338187 0 -0.014607 -0.360117 0 0.341025 -0.299994 0 0.358711 -0.288671 0 0.348314 -0.351164 0 0.361663 -0.357222 0 0.361868 -0.385106 0 0.360112 -0.404947 0 0.354583 -0.424902 0 0.344601 -0.444533 0 0.329901 -0.462276 0 0.310114 -0.478385 0 0.285265 -0.492643 0 0.255452 -0.505185 0 0.221121 -0.516388 0 0.182698 -0.52618 0 0.140721 -0.535293 0 0.0961806 -0.544115 0 0.0499227 -0.549157 0 -0.000284479 -0.566174 0 -0.0394947 -0.557301 0 -0.100898 -0.572339 0 0.283139 -0.409411 0 0.317133 -0.413502 0 0.280245 -0.496936 0 0.31267 -0.475198 0 0.317371 -0.510567 0 0.31574 -0.537914 0 0.31326 -0.563759 0 0.30563 -0.588589 0 0.291718 -0.611901 0 0.272214 -0.634379 0 0.246332 -0.654651 0 0.214909 -0.672043 0 0.178514 -0.686463 0 0.137643 -0.697949 0 0.0930138 -0.707569 0 0.0456043 -0.716465 0 -0.00389735 -0.722703 0 -0.0579191 -0.736241 0 -0.101862 -0.733365 0 -0.159694 -0.747051 0 0.228354 -0.509313 0 0.271824 -0.449232 0 0.234392 -0.561682 0 0.271436 -0.604396 0 0.253316 -0.645993 0 0.266359 -0.680262 0 0.266456 -0.712896 0 0.261175 -0.744466 0 0.254567 -0.772005 0 0.240819 -0.794134 0 0.221622 -0.812226 0 0.194792 -0.826813 0 0.160404 -0.838701 0 0.119258 -0.84829 0 0.0725705 -0.85592 0 0.0226405 -0.861859 0 -0.0289788 -0.865156 0 -0.0844399 -0.870548 0 -0.137335 -0.866323 0 -0.188633 -0.876626 0 0.17695 -0.598314 0 0.153122 -0.69515 0 0.162471 -0.71201 0 0.187381 -0.735392 0 0.212263 -0.766439 0 0.22323 -0.800576 0 0.236958 -0.832541 0 0.247795 -0.861987 0 0.25178 -0.890061 0 0.248853 -0.916532 0 0.236524 -0.939564 0 0.214956 -0.957731 0 0.184341 -0.970277 0 0.145171 -0.97705 0 0.098558 -0.978979 0 0.0460894 -0.977693 0 -0.0098024 -0.974201 0 -0.062655 -0.975767 0 -0.102653 -0.97679 0 -0.188569 -0.958814 0 0.128844 -0.675765 0 0.215261 -0.60204 0 0.16917 -0.672895 0 0.216807 -0.681054 0 0.222145 -0.717793 0 0.24104 -0.751737 0 0.256524 -0.789293 0 0.268393 -0.830205 0 0.277279 -0.87126 0 0.280013 -0.910103 0 0.274774 -0.944664 0 0.258604 -0.973152 0 0.229824 -0.994473 0 0.188301 -1.00848 0 0.136027 -1.01563 0 0.0755448 -1.01647 0 0.00514344 -1.0107 0 -0.0722882 -0.992836 0 -0.159652 -0.977014 0 -0.163284 -0.996228 0 0.083679 -0.74168 0 0.0761233 -0.81237 0 0.0378525 -0.926151 0 0.0592198 -1.01807 0 0.0550369 -1.10871 0 0.0700967 -1.19047 0 0.0858972 -1.26711 0 0.106216 -1.33735 0 0.132661 -1.39877 0 0.160879 -1.44949 0 0.188053 -1.48718 0 0.208581 -1.50881 0 0.217253 -1.51113 0 0.209661 -1.49167 0 0.185837 -1.45014 0 0.151565 -1.39029 0 0.113435 -1.32017 0 0.0904311 -1.23912 0 0.019578 -1.15124 0 -0.118679 -0.99497 0 0.0409294 -0.796605 0 -0.0588838 -0.885109 0 0.000630159 -0.830573 0 0.0300118 -0.788777 0 0.0760666 -0.744083 0 0.114261 -0.710205 0 0.166355 -0.675934 0 0.23024 -0.641479 0 0.303391 -0.608188 0 0.385341 -0.575886 0 0.470596 -0.544945 0 0.553267 -0.514319 0 0.623044 -0.482687 0 0.665766 -0.448534 0 0.664862 -0.41211 0 0.605172 -0.380246 0 0.483429 -0.373891 0 0.324451 -0.433327 0 0.151579 -0.628124 0 -0.0618101 -0.963097 0 -2.74949e-07 -0.841471 0 0.123125 -0.612367 0 0.135491 -0.581748 0 0.194206 -0.627952 0 0.205552 -0.649876 0 0.25029 -0.651639 0 0.296787 -0.648909 0 0.354368 -0.648154 0 0.423597 -0.658094 0 0.495263 -0.688887 0 0.566977 -0.749528 0 0.627534 -0.853115 0 0.663497 -1.01331 0 0.652391 -1.24536 0 0.565541 -1.55617 0 0.372114 -1.92851 0 0.0438701 -2.29872 0 -0.352292 -2.48097 0 -0.6492 -2.17589 0 -2.6293e-06 -0.9093 0 </DataArray> 
</PointData> 
<Points> 
<DataArray type="Float32" NumberOfComponents="3"> 
1 0 0 1.05263 0 0 1.10526 0 0 1.15789 0 0 1.21053 0 0 1.26316 0 0 1.31579 0 0 1.36842 0 0 1.42105 0 0 1.47368 0 0 1.52632 0 0 1.57895 0 0 1.63158 0 0 1.68421 0 0 1.73684 0 0 1.78947 0 0 1.84211 0 0 1.89474 0 0 1.94737 0 0 2 0 0 0.997147 0.0754898 0 1.04963 0.079463 0 1.10211 0.0834361 0 1.15459 0.0874093 0 1.20707 0.0913824 0 1.25955 0.0953555 0 1.31203 0.0993287 0 1.36452 0.103302 0 1.417 0.107275 0 1.46948 0.111248 0 1.52196 0.115221 0 1.57444 0.119194 0 1.62692 0.123168 0 1.6794 0.127141 0 1.73189 0.131114 0 1.78437 0.135087 0 1.83685 0.13906 0 1.88933 0.143033 0 1.94181 0.147006 0 1.99429 0.15098 0 0.988273 0.1527 0 1.04029 0.160736 0 1.0923 0.168773 0 1.14432 0.17681 0 1.19633 0.184847 0 1.24834 0.192884 0 1.30036 0.20092 0 1.35237 0.208957 0 1.40439 0.216994 0 1.4564 0.225031 0 1.50842 0.233068 0 1.56043 0.241105 0 1.61244 0.249141 0 1.66446 0.257178 0 1.71647 0.265215 0 1.76849 0.273252 0 1.8205 0.281289 0 1.87252 0.289325 0 1.92453 0.297362 0 1.97655 0.305399 0 0.972963 0.230959 0 1.02417 0.243115 0 1.07538 0.255271 0 1.12659 0.267427 0 1.1778 0.279582 0 1.22901 0.291738 0 1.28022 0.303894 0 1.33142 0.31605 0 1.38263 0.328205 0 1.43384 0.340361 0 1.48505 0.352517 0 1.53626 0.364673 0 1.58747 0.376828 0 1.63868 0.388984 0 1.68988 0.40114 0 1.74109 0.413296 0 1.7923 0.425451 0 1.84351 0.437607 0 1.89472 0.449763 0 1.94593 0.461919 0 0.950898 0.309504 0 1.00095 0.325794 0 1.05099 0.342084 0 1.10104 0.358373 0 1.15109 0.374663 0 1.20113 0.390953 0 1.25118 0.407242 0 1.30123 0.423532 0 1.35128 0.439822 0 1.40132 0.456111 0 1.45137 0.472401 0 1.50142 0.488691 0 1.55147 0.504981 0 1.60151 0.52127 0 1.65156 0.53756 0 1.70161 0.55385 0 1.75165 0.570139 0 1.8017 0.586429 0 1.85175 0.602719 0 1.9018 0.619008 0 0.921874 0.38749 0 0.970393 0.407885 0 1.01891 0.428279 0 1.06743 0.448673 0 1.11595 0.469067 0 1.16447 0.489461 0 1.21299 0.509856 0 1.26151 0.53025 0 1.31003 0.550644 0 1.35855 0.571038 0 1.40707 0.591433 0 1.45559 0.611827 0 1.50411 0.632221 0 1.55263 0.652615 0 1.60115 0.67301 0 1.64967 0.693404 0 1.69819 0.713798 0 1.74671 0.734192 0 1.79523 0.754586 0 1.84375 0.774981 0 0.885826 0.464017 0 0.932449 0.488439 0 0.979071 0.512861 0 1.02569 0.537283 0 1.07232 0.561705 0 1.11894 0.586127 0 1.16556 0.610549 0 1.21218 0.634971 0 1.25881 0.659393 0 1.30543 0.683815 0 1.35205 0.708237 0 1.39867 0.732659 0 1.4453 0.757081 0 1.49192 0.781503 0 1.53854 0.805925 0 1.58516 0.830347 0 1.63179 0.854769 0 1.67841 0.879191 0 1.72503 0.903613 0 1.77165 0.928035 0 0.842845 0.538157 0 0.887205 0.566481 0 0.931565 0.594805 0 0.975926 0.623129 0 1.02029 0.651453 0 1.06465 0.679777 0 1.10901 0.708101 0 1.15337 0.736425 0 1.19773 0.764749 0 1.24209 0.793073 0 1.28645 0.821397 0 1.33081 0.849721 0 1.37517 0.878045 0 1.41953 0.906369 0 1.46389 0.934693 0 1.50825 0.963017 0 1.55261 0.991341 0 1.59697 1.01966 0 1.64133 1.04799 0 1.68569 1.07631 0 0.793182 0.608985 0 0.834928 0.641037 0 0.876675 0.673088 0 0.918421 0.70514 0 0.960168 0.737192 0 1.00191 0.769244 0 1.04366 0.801296 0 1.08541 0.833347 0 1.12715 0.865399 0 1.1689 0.897451 0 1.21065 0.929503 0 1.25239 0.961555 0 1.29414 0.993607 0 1.33589 1.02566 0 1.37763 1.05771 0 1.41938 1.08976 0 1.46112 1.12181 0 1.50287 1.15387 0 1.54462 1.18592 0 1.58636 1.21797 0 0.737251 0.675619 0 0.776054 0.711178 0 0.814857 0.746737 0 0.853659 0.782295 0 0.892462 0.817854 0 0.931265 0.853413 0 0.970067 0.888972 0 1.00887 0.924531 0 1.04767 0.96009 0 1.08648 0.995649 0 1.12528 1.03121 0 1.16408 1.06677 0 1.20288 1.10233 0 1.24169 1.13788 0 1.28049 1.17344 0 1.31929 1.209 0 1.35809 1.24456 0 1.3969 1.28012 0 1.4357 1.31568 0 1.4745 1.35124 0 0.675619 0.737251 0 0.711178 0.776054 0 0.746737 0.814857 0 0.782295 0.853659 0 0.817854 0.892462 0 0.853413 0.931265 0 0.888972 0.970067 0 0.924531 1.00887 0 0.96009 1.04767 0 0.995649 1.08648 0 1.03121 1.12528 0 1.06677 1.16408 0 1.10233 1.20288 0 1.13788 1.24169 0 1.17344 1.28049 0 1.209 1.31929 0 1.24456 1.35809 0 1.28012 1.3969 0 1.31568 1.4357 0 1.35124 1.4745 0 0.608985 0.793182 0 0.641037 0.834928 0 0.673088 0.876675 0 0.70514 0.918421 0 0.737192 0.960168 0 0.769244 1.00191 0 0.801296 1.04366 0 0.833347 1.08541 0 0.865399 1.12715 0 0.897451 1.1689 0 0.929503 1.21065 0 0.961555 1.25239 0 0.993607 1.29414 0 1.02566 1.33589 0 1.05771 1.37763 0 1.08976 1.41938 0 1.12181 1.46112 0 1.15387 1.50287 0 1.18592 1.54462 0 1.21797 1.58636 0 0.538157 0.842845 0 0.566481 0.887205 0 0.594805 0.931565 0 0.623129 0.975926 0 0.651453 1.02029 0 0.679777 1.06465 0 0.708101 1.10901 0 0.736425 1.15337 0 0.764749 1.19773 0 0.793073 1.24209 0 0.821397 1.28645 0 0.849721 1.33081 0 0.878045 1.37517 0 0.906369 1.41953 0 0.934693 1.46389 0 0.963017 1.50825 0 0.991341 1.55261 0 1.01966 1.59697 0 1.04799 1.64133 0 1.07631 1.68569 0 0.464017 0.885826 0 0.488439 0.932449 0 0.512861 0.979071 0 0.537283 1.02569 0 0.561705 1.07232 0 0.586127 1.11894 0 0.610549 1.16556 0 0.634971 1.21218 0 0.659393 1.25881 0 0.683815 1.30543 0 0.708237 1.35205 0 0.732659 1.39867 0 0.757081 1.4453 0 0.781503 1.49192 0 0.805925 1.53854 0 0.830347 1.58516 0 0.854769 1.63179 0 0.879191 1.67841 0 0.903613 1.72503 0 0.928035 1.77165 0 0.38749 0.921874 0 0.407885 0.970393 0 0.428279 1.01891 0 0.448673 1.06743 0 0.469067 1.11595 0 0.489461 1.16447 0 0.509856 1.21299 0 0.53025 1.26151 0 0.550644 1.31003 0 0.571038 1.35855 0 0.591433 1.40707 0 0.611827 1.45559 0 0.632221 1.50411 0 0.652615 1.55263 0 0.67301 1.60115 0 0.693404 1.64967 0 0.713798 1.69819 0 0.734192 1.74671 0 0.754586 1.79523 0 0.774981 1.84375 0 0.309504 0.950898 0 0.325794 1.00095 0 0.342084 1.05099 0 0.358373 1.10104 0 0.374663 1.15109 0 0.390953 1.20113 0 0.407242 1.25118 0 0.423532 1.30123 0 0.439822 1.35128 0 0.456111 1.40132 0 0.472401 1.45137 0 0.488691 1.50142 0 0.504981 1.55147 0 0.52127 1.60151 0 0.53756 1.65156 0 0.55385 1.70161 0 0.570139 1.75165 0 0.586429 1.8017 0 0.602719 1.85175 0 0.619008 1.9018 0 0.230959 0.972963 0 0.243115 1.02417 0 0.255271 1.07538 0 0.267427 1.12659 0 0.279582 1.1778 0 0.291738 1.22901 0 0.303894 1.28022 0 0.31605 1.33142 0 0.328205 1.38263 0 0.340361 1.43384 0 0.352517 1.48505 0 0.364673 1.53626 0 0.376828 1.58747 0 0.388984 1.63868 0 0.40114 1.68988 0 0.413296 1.74109 0 0.425451 1.7923 0 0.437607 1.84351 0 0.449763 1.89472 0 0.461919 1.94593 0 0.1527 0.988273 0 0.160736 1.04029 0 0.168773 1.0923 0 0.17681 1.14432 0 0.184847 1.19633 0 0.192884 1.24834 0 0.20092 1.30036 0 0.208957 1.35237 0 0.216994 1.40439 0 0.225031 1.4564 0 0.233068 1.50842 0 0.241105 1.56043 0 0.249141 1.61244 0 0.257178 1.66446 0 0.265215 1.71647 0 0.273252 1.76849 0 0.281289 1.8205 0 0.289325 1.87252 0 0.297362 1.92453 0 0.305399 1.97655 0 0.0754898 0.997147 0 0.079463 1.04963 0 0.0834361 1.10211 0 0.0874093 1.15459 0 0.0913824 1.20707 0 0.0953555 1.25955 0 0.0993287 1.31203 0 0.103302 1.36452 0 0.107275 1.417 0 0.111248 1.46948 0 0.115221 1.52196 0 0.119194 1.57444 0 0.123168 1.62692 0 0.127141 1.6794 0 0.131114 1.73189 0 0.135087 1.78437 0 0.13906 1.83685 0 0.143033 1.88933 0 0.147006 1.94181 0 0.15098 1.99429 0 0 1 0 0 1.05263 0 0 1.10526 0 0 1.15789 0 0 1.21053 0 0 1.26316 0 0 1.31579 0 0 1.36842 0 0 1.42105 0 0 1.47368 0 0 1.52632 0 0 1.57895 0 0 1.63158 0 0 1.68421 0 0 1.73684 0 0 1.78947 0 0 1.84211 0 0 1.89474 0 0 1.94737 0 0 2 0 
</DataArray>
</Points> 
</Piece> 
</StructuredGrid> 
</VTKFile> 
